<?xml version="1.0" encoding="UTF-8"?>

<!-- generated on 2025-09-26 23:55:47 by Eclipse SUMO GUI Version 1.21.0
<sumoConfiguration xmlns:xsi="http://www.w3.org/2001/XMLSchema-instance" xsi:noNamespaceSchemaLocation="http://sumo.dlr.de/xsd/sumoConfiguration.xsd">

    <input>
        <net-file value="E:\Users\35601\Desktop\sumo-scenarios\sumo-scenarios\bologna\pasubio\pasubio_buslanes.net.xml"/>
        <route-files value="E:\Users\35601\Desktop\sumo-scenarios\sumo-scenarios\bologna\pasubio\pasubio.rou.xml"/>
        <additional-files value="E:\Users\35601\Desktop\sumo-scenarios\sumo-scenarios\bologna\pasubio\pasubio_vtypes.add.xml,E:\Users\35601\Desktop\sumo-scenarios\sumo-scenarios\bologna\pasubio\pasubio_bus_stops.add.xml,E:\Users\35601\Desktop\sumo-scenarios\sumo-scenarios\bologna\pasubio\pasubio_busses.rou.xml,E:\Users\35601\Desktop\sumo-scenarios\sumo-scenarios\bologna\pasubio\pasubio_detectors.add.xml,E:\Users\35601\Desktop\sumo-scenarios\sumo-scenarios\bologna\pasubio\pasubio_tls.add.xml"/>
    </input>

    <output>
        <tripinfo-output value="E:\Users\35601\Desktop\sumo-scenarios\sumo-scenarios\bologna\pasubio\tripinfos.xml"/>
    </output>

    <report>
        <log value="E:\Users\35601\Desktop\sumo-scenarios\sumo-scenarios\bologna\pasubio\sumo_log.txt"/>
        <no-step-log value="true"/>
    </report>

</sumoConfiguration>
-->

<tripinfos xmlns:xsi="http://www.w3.org/2001/XMLSchema-instance" xsi:noNamespaceSchemaLocation="http://sumo.dlr.de/xsd/tripinfo_file.xsd">
    <tripinfo id="Pertini_20_2" depart="4.00" departLane="63[0]_2" departPos="0.00" departSpeed="0.00" departDelay="0.00" arrival="74.00" arrivalLane="4[1][1][1]_1" arrivalPos="170.54" arrivalSpeed="13.31" duration="70.00" routeLength="882.71" waitingTime="0.00" waitingCount="0" stopTime="0.00" timeLoss="7.19" rerouteNo="0" devices="tripinfo_Pertini_20_2" vType="passenger2b" speedFactor="1.02" vaporized=""/>
    <tripinfo id="Pertini_20_0" depart="0.00" departLane="63[0]_2" departPos="0.00" departSpeed="0.00" departDelay="0.00" arrival="76.00" arrivalLane="4[1][1][1]_0" arrivalPos="170.54" arrivalSpeed="13.83" duration="76.00" routeLength="895.82" waitingTime="4.00" waitingCount="1" stopTime="0.00" timeLoss="15.45" rerouteNo="0" devices="tripinfo_Pertini_20_0" vType="passenger1" speedFactor="1.08" vaporized=""/>
    <tripinfo id="Pertini_20_1" depart="4.00" departLane="63[0]_1" departPos="0.00" departSpeed="0.00" departDelay="2.00" arrival="76.00" arrivalLane="4[1][1][1]_1" arrivalPos="170.54" arrivalSpeed="13.29" duration="72.00" routeLength="895.82" waitingTime="0.00" waitingCount="0" stopTime="0.00" timeLoss="9.68" rerouteNo="0" devices="tripinfo_Pertini_20_1" vType="passenger1" speedFactor="1.05" vaporized=""/>
    <tripinfo id="Pertini_20_7" depart="15.00" departLane="63[0]_2" departPos="0.00" departSpeed="0.00" departDelay="0.00" arrival="79.00" arrivalLane="4[1][1][1]_0" arrivalPos="170.54" arrivalSpeed="15.11" duration="64.00" routeLength="882.71" waitingTime="0.00" waitingCount="0" stopTime="0.00" timeLoss="5.47" rerouteNo="0" devices="tripinfo_Pertini_20_7" vType="passenger1" speedFactor="1.10" vaporized=""/>
    <tripinfo id="Prati_Capraia_10_0" depart="0.00" departLane="3[0]_0" departPos="0.00" departSpeed="0.00" departDelay="0.00" arrival="81.00" arrivalLane="10_0" arrivalPos="223.30" arrivalSpeed="11.84" duration="81.00" routeLength="409.63" waitingTime="38.00" waitingCount="1" stopTime="0.00" timeLoss="48.63" rerouteNo="0" devices="tripinfo_Prati_Capraia_10_0" vType="passenger2b" speedFactor="0.94" vaporized=""/>
    <tripinfo id="Prati_Capraia_10_1" depart="4.00" departLane="3[0]_0" departPos="0.00" departSpeed="0.00" departDelay="0.00" arrival="86.00" arrivalLane="10_0" arrivalPos="223.30" arrivalSpeed="10.17" duration="82.00" routeLength="409.63" waitingTime="36.00" waitingCount="1" stopTime="0.00" timeLoss="44.23" rerouteNo="0" devices="tripinfo_Prati_Capraia_10_1" vType="passenger5" speedFactor="0.80" vaporized=""/>
    <tripinfo id="Pertini_20_10" depart="21.00" departLane="63[0]_2" departPos="0.00" departSpeed="0.00" departDelay="0.00" arrival="86.00" arrivalLane="4[1][1][1]_1" arrivalPos="170.54" arrivalSpeed="15.08" duration="65.00" routeLength="882.71" waitingTime="0.00" waitingCount="0" stopTime="0.00" timeLoss="7.53" rerouteNo="0" devices="tripinfo_Pertini_20_10" vType="passenger1" speedFactor="1.12" vaporized=""/>
    <tripinfo id="Prati_Capraia_10_7" depart="34.00" departLane="3[0]_0" departPos="0.00" departSpeed="0.00" departDelay="0.00" arrival="88.00" arrivalLane="10_0" arrivalPos="223.30" arrivalSpeed="13.18" duration="54.00" routeLength="409.63" waitingTime="11.00" waitingCount="1" stopTime="0.00" timeLoss="24.12" rerouteNo="0" devices="tripinfo_Prati_Capraia_10_7" vType="passenger3" speedFactor="1.02" vaporized=""/>
    <tripinfo id="Certosa_9_0" depart="0.00" departLane="22[0]_1" departPos="0.00" departSpeed="0.00" departDelay="0.00" arrival="91.00" arrivalLane="2[1][1][1]b_2" arrivalPos="324.74" arrivalSpeed="13.94" duration="91.00" routeLength="602.57" waitingTime="39.00" waitingCount="1" stopTime="0.00" timeLoss="50.04" rerouteNo="0" devices="tripinfo_Certosa_9_0" vType="passenger1" speedFactor="1.08" vaporized=""/>
    <tripinfo id="Pertini_20_9" depart="19.00" departLane="63[0]_1" departPos="0.00" departSpeed="0.00" departDelay="0.00" arrival="93.00" arrivalLane="4[1][1][1]_1" arrivalPos="170.54" arrivalSpeed="12.87" duration="74.00" routeLength="895.82" waitingTime="0.00" waitingCount="0" stopTime="0.00" timeLoss="6.44" rerouteNo="0" devices="tripinfo_Pertini_20_9" vType="passenger1" speedFactor="0.96" vaporized=""/>
    <tripinfo id="Pertini_20_11" depart="23.00" departLane="63[0]_1" departPos="0.00" departSpeed="0.00" departDelay="0.00" arrival="93.00" arrivalLane="4[1][1][1]_0" arrivalPos="170.54" arrivalSpeed="14.28" duration="70.00" routeLength="895.82" waitingTime="0.00" waitingCount="0" stopTime="0.00" timeLoss="9.92" rerouteNo="0" devices="tripinfo_Pertini_20_11" vType="passenger1" speedFactor="1.09" vaporized=""/>
    <tripinfo id="Pertini_20_12" depart="25.00" departLane="63[0]_2" departPos="0.00" departSpeed="0.00" departDelay="0.00" arrival="96.00" arrivalLane="4[1][1][1]_0" arrivalPos="170.54" arrivalSpeed="13.71" duration="71.00" routeLength="895.82" waitingTime="0.00" waitingCount="0" stopTime="0.00" timeLoss="6.00" rerouteNo="0" devices="tripinfo_Pertini_20_12" vType="passenger1" speedFactor="1.01" vaporized=""/>
    <tripinfo id="Pertini_20_14" depart="30.00" departLane="63[0]_1" departPos="0.00" departSpeed="0.00" departDelay="0.00" arrival="97.00" arrivalLane="4[1][1][1]_1" arrivalPos="170.54" arrivalSpeed="13.91" duration="67.00" routeLength="895.82" waitingTime="0.00" waitingCount="0" stopTime="0.00" timeLoss="5.65" rerouteNo="0" devices="tripinfo_Pertini_20_14" vType="passenger1" speedFactor="1.06" vaporized=""/>
    <tripinfo id="Prati_Capraia_100_3" depart="14.00" departLane="3[0]_0" departPos="0.00" departSpeed="0.00" departDelay="0.00" arrival="98.00" arrivalLane="3[1]b_0" arrivalPos="238.77" arrivalSpeed="14.51" duration="84.00" routeLength="624.48" waitingTime="29.00" waitingCount="1" stopTime="0.00" timeLoss="40.89" rerouteNo="0" devices="tripinfo_Prati_Capraia_100_3" vType="passenger2a" speedFactor="1.06" vaporized=""/>
    <tripinfo id="Prati_Capraia_100_9" depart="43.00" departLane="3[0]_0" departPos="0.00" departSpeed="0.00" departDelay="0.00" arrival="100.00" arrivalLane="3[1]b_1" arrivalPos="238.77" arrivalSpeed="16.42" duration="57.00" routeLength="624.48" waitingTime="4.00" waitingCount="1" stopTime="0.00" timeLoss="19.13" rerouteNo="0" devices="tripinfo_Prati_Capraia_100_9" vType="passenger2a" speedFactor="1.21" vaporized=""/>
    <tripinfo id="Pertini_20_15" depart="32.00" departLane="63[0]_2" departPos="0.00" departSpeed="0.00" departDelay="0.00" arrival="101.00" arrivalLane="4[1][1][1]_0" arrivalPos="170.54" arrivalSpeed="13.19" duration="69.00" routeLength="895.82" waitingTime="0.00" waitingCount="0" stopTime="0.00" timeLoss="5.78" rerouteNo="0" devices="tripinfo_Pertini_20_15" vType="passenger1" speedFactor="1.03" vaporized=""/>
    <tripinfo id="Gandhi_80_11" depart="17.00" departLane="1[0]_0" departPos="0.00" departSpeed="0.00" departDelay="0.00" arrival="105.00" arrivalLane="21_0" arrivalPos="89.26" arrivalSpeed="12.74" duration="88.00" routeLength="512.45" waitingTime="40.00" waitingCount="1" stopTime="0.00" timeLoss="50.11" rerouteNo="0" devices="tripinfo_Gandhi_80_11" vType="passenger1" speedFactor="1.00" vaporized=""/>
    <tripinfo id="Prati_Capraia_100_4" depart="19.00" departLane="3[0]_1" departPos="0.00" departSpeed="0.00" departDelay="0.00" arrival="105.00" arrivalLane="3[1]b_0" arrivalPos="238.77" arrivalSpeed="12.52" duration="86.00" routeLength="624.48" waitingTime="26.00" waitingCount="1" stopTime="0.00" timeLoss="35.67" rerouteNo="0" devices="tripinfo_Prati_Capraia_100_4" vType="passenger2a" speedFactor="0.91" vaporized=""/>
    <tripinfo id="Pertini_20_17" depart="36.00" departLane="63[0]_2" departPos="0.00" departSpeed="0.00" departDelay="0.00" arrival="107.00" arrivalLane="4[1][1][1]_0" arrivalPos="170.54" arrivalSpeed="13.52" duration="71.00" routeLength="882.71" waitingTime="0.00" waitingCount="0" stopTime="0.00" timeLoss="6.04" rerouteNo="0" devices="tripinfo_Pertini_20_17" vType="passenger1" speedFactor="0.99" vaporized=""/>
    <tripinfo id="Prati_Capraia_100_11" depart="53.00" departLane="3[0]_0" departPos="0.00" departSpeed="0.00" departDelay="0.00" arrival="110.00" arrivalLane="3[1]b_0" arrivalPos="238.77" arrivalSpeed="12.15" duration="57.00" routeLength="624.48" waitingTime="0.00" waitingCount="0" stopTime="0.00" timeLoss="7.21" rerouteNo="0" devices="tripinfo_Prati_Capraia_100_11" vType="passenger1" speedFactor="0.92" vaporized=""/>
    <tripinfo id="Prati_Capraia_100_5" depart="24.00" departLane="3[0]_0" departPos="0.00" departSpeed="0.00" departDelay="0.00" arrival="111.00" arrivalLane="3[1]b_0" arrivalPos="238.77" arrivalSpeed="13.33" duration="87.00" routeLength="624.48" waitingTime="25.00" waitingCount="2" stopTime="0.00" timeLoss="40.68" rerouteNo="0" devices="tripinfo_Prati_Capraia_100_5" vType="passenger2b" speedFactor="0.98" vaporized=""/>
    <tripinfo id="Prati_Capraia_100_2" depart="9.00" departLane="3[0]_1" departPos="0.00" departSpeed="0.00" departDelay="0.00" arrival="113.00" arrivalLane="3[1]b_0" arrivalPos="238.77" arrivalSpeed="13.30" duration="104.00" routeLength="624.48" waitingTime="41.00" waitingCount="2" stopTime="0.00" timeLoss="59.25" rerouteNo="0" devices="tripinfo_Prati_Capraia_100_2" vType="passenger5" speedFactor="1.02" vaporized=""/>
    <tripinfo id="Prati_Capraia_100_13" depart="63.00" departLane="3[0]_0" departPos="0.00" departSpeed="0.00" departDelay="0.00" arrival="114.00" arrivalLane="3[1]b_0" arrivalPos="238.77" arrivalSpeed="13.39" duration="51.00" routeLength="624.48" waitingTime="0.00" waitingCount="0" stopTime="0.00" timeLoss="7.52" rerouteNo="0" devices="tripinfo_Prati_Capraia_100_13" vType="passenger2b" speedFactor="1.03" vaporized=""/>
    <tripinfo id="Saffi_30_4" depart="11.00" departLane="12_0" departPos="0.00" departSpeed="0.00" departDelay="0.00" arrival="115.00" arrivalLane="70_0" arrivalPos="59.87" arrivalSpeed="13.61" duration="104.00" routeLength="1144.73" waitingTime="5.00" waitingCount="1" stopTime="0.00" timeLoss="22.87" rerouteNo="0" devices="tripinfo_Saffi_30_4" vType="passenger1" speedFactor="1.03" vaporized=""/>
    <tripinfo id="Pertini_20_16" depart="34.00" departLane="63[0]_1" departPos="0.00" departSpeed="0.00" departDelay="0.00" arrival="116.00" arrivalLane="4[1][1][1]_0" arrivalPos="170.54" arrivalSpeed="10.63" duration="82.00" routeLength="895.82" waitingTime="0.00" waitingCount="0" stopTime="0.00" timeLoss="6.80" rerouteNo="0" devices="tripinfo_Pertini_20_16" vType="passenger2a" speedFactor="0.87" vaporized=""/>
    <tripinfo id="Pertini_20_18" depart="38.00" departLane="63[0]_1" departPos="0.00" departSpeed="0.00" departDelay="0.00" arrival="117.00" arrivalLane="4[1][1][1]_0" arrivalPos="170.54" arrivalSpeed="12.56" duration="79.00" routeLength="895.82" waitingTime="0.00" waitingCount="0" stopTime="0.00" timeLoss="9.31" rerouteNo="0" devices="tripinfo_Pertini_20_18" vType="passenger3" speedFactor="0.93" vaporized=""/>
    <tripinfo id="Sabotino_9_3" depart="27.00" departLane="41_0" departPos="0.00" departSpeed="0.00" departDelay="0.00" arrival="118.00" arrivalLane="2[1][1][1]b_1" arrivalPos="324.74" arrivalSpeed="14.13" duration="91.00" routeLength="1123.23" waitingTime="1.00" waitingCount="1" stopTime="0.00" timeLoss="14.48" rerouteNo="0" devices="tripinfo_Sabotino_9_3" vType="passenger1" speedFactor="1.06" vaporized=""/>
    <tripinfo id="Prati_Capraia_100_12" depart="58.00" departLane="3[0]_1" departPos="0.00" departSpeed="0.00" departDelay="0.00" arrival="118.00" arrivalLane="3[1]b_0" arrivalPos="238.77" arrivalSpeed="12.37" duration="60.00" routeLength="624.48" waitingTime="1.00" waitingCount="1" stopTime="0.00" timeLoss="13.02" rerouteNo="0" devices="tripinfo_Prati_Capraia_100_12" vType="passenger3" speedFactor="0.97" vaporized=""/>
    <tripinfo id="Prati_Capraia_100_8" depart="38.00" departLane="3[0]_1" departPos="0.00" departSpeed="0.00" departDelay="0.00" arrival="119.00" arrivalLane="3[1]b_0" arrivalPos="238.77" arrivalSpeed="15.11" duration="81.00" routeLength="624.48" waitingTime="17.00" waitingCount="3" stopTime="0.00" timeLoss="40.63" rerouteNo="0" devices="tripinfo_Prati_Capraia_100_8" vType="passenger2a" speedFactor="1.12" vaporized=""/>
    <tripinfo id="Pertini_20_22" depart="47.00" departLane="63[0]_2" departPos="0.00" departSpeed="0.00" departDelay="0.00" arrival="119.00" arrivalLane="4[1][1][1]_0" arrivalPos="170.54" arrivalSpeed="16.01" duration="72.00" routeLength="882.71" waitingTime="4.00" waitingCount="1" stopTime="0.00" timeLoss="17.41" rerouteNo="0" devices="tripinfo_Pertini_20_22" vType="passenger1" speedFactor="1.18" vaporized=""/>
    <tripinfo id="Prati_Capraia_100_14" depart="68.00" departLane="3[0]_1" departPos="0.00" departSpeed="0.00" departDelay="0.00" arrival="119.00" arrivalLane="3[1]b_1" arrivalPos="238.77" arrivalSpeed="13.33" duration="51.00" routeLength="624.48" waitingTime="0.00" waitingCount="0" stopTime="0.00" timeLoss="5.37" rerouteNo="0" devices="tripinfo_Prati_Capraia_100_14" vType="passenger4" speedFactor="1.00" vaporized=""/>
    <tripinfo id="Sabotino_9_0" depart="0.00" departLane="41_0" departPos="0.00" departSpeed="0.00" departDelay="0.00" arrival="120.00" arrivalLane="2[1][1][1]b_0" arrivalPos="324.74" arrivalSpeed="12.84" duration="120.00" routeLength="1123.23" waitingTime="25.00" waitingCount="1" stopTime="0.00" timeLoss="39.79" rerouteNo="0" devices="tripinfo_Sabotino_9_0" vType="passenger1" speedFactor="1.02" vaporized=""/>
    <tripinfo id="Sabotino_9_2" depart="18.00" departLane="41_0" departPos="0.00" departSpeed="0.00" departDelay="0.00" arrival="121.00" arrivalLane="2[1][1][1]b_1" arrivalPos="324.74" arrivalSpeed="13.23" duration="103.00" routeLength="1123.23" waitingTime="7.00" waitingCount="1" stopTime="0.00" timeLoss="21.85" rerouteNo="0" devices="tripinfo_Sabotino_9_2" vType="passenger5" speedFactor="1.00" vaporized=""/>
    <tripinfo id="Pertini_20_19" depart="40.00" departLane="63[0]_2" departPos="0.00" departSpeed="0.00" departDelay="0.00" arrival="124.00" arrivalLane="4[1][1][1]_0" arrivalPos="170.54" arrivalSpeed="11.15" duration="84.00" routeLength="895.82" waitingTime="0.00" waitingCount="0" stopTime="0.00" timeLoss="6.29" rerouteNo="0" devices="tripinfo_Pertini_20_19" vType="passenger3" speedFactor="0.84" vaporized=""/>
    <tripinfo id="Sabotino_9_1" depart="9.00" departLane="41_0" departPos="0.00" departSpeed="0.00" departDelay="0.00" arrival="125.00" arrivalLane="2[1][1][1]b_0" arrivalPos="324.74" arrivalSpeed="12.86" duration="116.00" routeLength="1123.23" waitingTime="17.00" waitingCount="1" stopTime="0.00" timeLoss="29.13" rerouteNo="0" devices="tripinfo_Sabotino_9_1" vType="passenger2a" speedFactor="0.94" vaporized=""/>
    <tripinfo id="Pertini_20_25" depart="53.00" departLane="63[0]_1" departPos="0.00" departSpeed="0.00" departDelay="0.00" arrival="125.00" arrivalLane="4[1][1][1]_0" arrivalPos="170.54" arrivalSpeed="12.51" duration="72.00" routeLength="895.82" waitingTime="0.00" waitingCount="0" stopTime="0.00" timeLoss="8.43" rerouteNo="0" devices="tripinfo_Pertini_20_25" vType="passenger1" speedFactor="1.01" vaporized=""/>
    <tripinfo id="Gandhi_80_45" depart="70.00" departLane="1[0]_0" departPos="0.00" departSpeed="0.00" departDelay="0.00" arrival="125.00" arrivalLane="21_0" arrivalPos="89.26" arrivalSpeed="11.51" duration="55.00" routeLength="512.45" waitingTime="0.00" waitingCount="0" stopTime="0.00" timeLoss="13.99" rerouteNo="0" devices="tripinfo_Gandhi_80_45" vType="passenger2a" speedFactor="0.92" vaporized=""/>
    <tripinfo id="Sabotino_9_4" depart="36.00" departLane="41_0" departPos="0.00" departSpeed="0.00" departDelay="0.00" arrival="126.00" arrivalLane="2[1][1][1]b_1" arrivalPos="324.74" arrivalSpeed="12.68" duration="90.00" routeLength="1123.23" waitingTime="0.00" waitingCount="0" stopTime="0.00" timeLoss="6.69" rerouteNo="0" devices="tripinfo_Sabotino_9_4" vType="passenger4" speedFactor="0.98" vaporized=""/>
    <tripinfo id="Prati_Capraia_10_19" depart="92.00" departLane="3[0]_0" departPos="0.00" departSpeed="0.00" departDelay="0.00" arrival="127.00" arrivalLane="10_0" arrivalPos="223.30" arrivalSpeed="14.46" duration="35.00" routeLength="409.63" waitingTime="0.00" waitingCount="0" stopTime="0.00" timeLoss="5.20" rerouteNo="0" devices="tripinfo_Prati_Capraia_10_19" vType="passenger3" speedFactor="1.05" vaporized=""/>
    <tripinfo id="Pertini_20_21" depart="45.00" departLane="63[0]_1" departPos="0.00" departSpeed="0.00" departDelay="0.00" arrival="128.00" arrivalLane="4[1][1][1]_0" arrivalPos="170.54" arrivalSpeed="13.90" duration="83.00" routeLength="882.71" waitingTime="4.00" waitingCount="1" stopTime="0.00" timeLoss="21.10" rerouteNo="0" devices="tripinfo_Pertini_20_21" vType="passenger4" speedFactor="1.04" vaporized=""/>
    <tripinfo id="Prati_Capraia_100_10" depart="48.00" departLane="3[0]_1" departPos="0.00" departSpeed="0.00" departDelay="0.00" arrival="129.00" arrivalLane="3[1]b_0" arrivalPos="238.77" arrivalSpeed="11.41" duration="81.00" routeLength="624.48" waitingTime="4.00" waitingCount="2" stopTime="0.00" timeLoss="28.95" rerouteNo="0" devices="tripinfo_Prati_Capraia_100_10" vType="passenger1" speedFactor="0.88" vaporized=""/>
    <tripinfo id="Pertini_20_26" depart="55.00" departLane="63[0]_2" departPos="0.00" departSpeed="0.00" departDelay="0.00" arrival="130.00" arrivalLane="4[1][1][1]_0" arrivalPos="170.54" arrivalSpeed="13.26" duration="75.00" routeLength="895.82" waitingTime="0.00" waitingCount="0" stopTime="0.00" timeLoss="7.76" rerouteNo="0" devices="tripinfo_Pertini_20_26" vType="passenger5" speedFactor="0.97" vaporized=""/>
    <tripinfo id="Prati_Capraia_100_18" depart="87.00" departLane="3[0]_0" departPos="0.00" departSpeed="0.00" departDelay="0.00" arrival="130.00" arrivalLane="3[1]b_1" arrivalPos="238.77" arrivalSpeed="15.97" duration="43.00" routeLength="624.48" waitingTime="0.00" waitingCount="0" stopTime="0.00" timeLoss="4.97" rerouteNo="0" devices="tripinfo_Prati_Capraia_100_18" vType="passenger1" speedFactor="1.21" vaporized=""/>
    <tripinfo id="Prati_Capraia_100_16" depart="77.00" departLane="3[0]_0" departPos="0.00" departSpeed="0.00" departDelay="0.00" arrival="131.00" arrivalLane="3[1]b_0" arrivalPos="238.77" arrivalSpeed="12.12" duration="54.00" routeLength="624.48" waitingTime="0.00" waitingCount="0" stopTime="0.00" timeLoss="4.96" rerouteNo="0" devices="tripinfo_Prati_Capraia_100_16" vType="passenger1" speedFactor="0.93" vaporized=""/>
    <tripinfo id="Prati_Capraia_100_17" depart="82.00" departLane="3[0]_1" departPos="0.00" departSpeed="0.00" departDelay="0.00" arrival="135.00" arrivalLane="3[1]b_0" arrivalPos="238.77" arrivalSpeed="12.97" duration="53.00" routeLength="624.48" waitingTime="0.00" waitingCount="0" stopTime="0.00" timeLoss="5.14" rerouteNo="0" devices="tripinfo_Prati_Capraia_100_17" vType="passenger1" speedFactor="0.94" vaporized=""/>
    <tripinfo id="Prati_Capraia_10_21" depart="102.00" departLane="3[0]_0" departPos="0.00" departSpeed="0.00" departDelay="0.00" arrival="135.00" arrivalLane="10_0" arrivalPos="223.30" arrivalSpeed="14.00" duration="33.00" routeLength="409.63" waitingTime="0.00" waitingCount="0" stopTime="0.00" timeLoss="5.14" rerouteNo="0" devices="tripinfo_Prati_Capraia_10_21" vType="passenger2b" speedFactor="1.08" vaporized=""/>
    <tripinfo id="Pertini_10_20" depart="43.00" departLane="63[0]_2" departPos="0.00" departSpeed="0.00" departDelay="0.00" arrival="138.00" arrivalLane="10_0" arrivalPos="223.30" arrivalSpeed="15.23" duration="95.00" routeLength="935.05" waitingTime="22.00" waitingCount="1" stopTime="0.00" timeLoss="34.51" rerouteNo="0" devices="tripinfo_Pertini_10_20" vType="passenger3" speedFactor="1.13" vaporized=""/>
    <tripinfo id="Sabotino_9_5" depart="45.00" departLane="41_0" departPos="0.00" departSpeed="0.00" departDelay="0.00" arrival="139.00" arrivalLane="2[1][1][1]b_0" arrivalPos="324.74" arrivalSpeed="11.86" duration="94.00" routeLength="1123.23" waitingTime="0.00" waitingCount="0" stopTime="0.00" timeLoss="7.27" rerouteNo="0" devices="tripinfo_Sabotino_9_5" vType="passenger1" speedFactor="0.94" vaporized=""/>
    <tripinfo id="Sabotino_9_6" depart="54.00" departLane="41_0" departPos="0.00" departSpeed="0.00" departDelay="0.00" arrival="139.00" arrivalLane="2[1][1][1]b_1" arrivalPos="324.74" arrivalSpeed="13.12" duration="85.00" routeLength="1123.23" waitingTime="0.00" waitingCount="0" stopTime="0.00" timeLoss="6.66" rerouteNo="0" devices="tripinfo_Sabotino_9_6" vType="passenger3" speedFactor="1.04" vaporized=""/>
    <tripinfo id="Pertini_20_27" depart="58.00" departLane="63[0]_1" departPos="0.00" departSpeed="0.00" departDelay="0.00" arrival="140.00" arrivalLane="4[1][1][1]_1" arrivalPos="170.54" arrivalSpeed="15.78" duration="82.00" routeLength="895.82" waitingTime="8.00" waitingCount="1" stopTime="0.00" timeLoss="26.45" rerouteNo="0" devices="tripinfo_Pertini_20_27" vType="passenger1" speedFactor="1.18" vaporized=""/>
    <tripinfo id="Montefiorino_60_7" depart="28.00" departLane="43_0" departPos="0.00" departSpeed="0.00" departDelay="0.00" arrival="142.00" arrivalLane="40[1]_0" arrivalPos="496.68" arrivalSpeed="12.15" duration="114.00" routeLength="1021.91" waitingTime="20.00" waitingCount="1" stopTime="0.00" timeLoss="32.31" rerouteNo="0" devices="tripinfo_Montefiorino_60_7" vType="passenger1" speedFactor="0.91" vaporized=""/>
    <tripinfo id="Borgo_20_3" depart="18.00" departLane="6_1" departPos="0.00" departSpeed="0.00" departDelay="0.00" arrival="147.00" arrivalLane="4[1][1][1]_1" arrivalPos="170.54" arrivalSpeed="12.92" duration="129.00" routeLength="551.60" waitingTime="77.00" waitingCount="1" stopTime="0.00" timeLoss="88.17" rerouteNo="0" devices="tripinfo_Borgo_20_3" vType="passenger1" speedFactor="1.00" vaporized=""/>
    <tripinfo id="Borgo_20_4" depart="24.00" departLane="6_1" departPos="0.00" departSpeed="0.00" departDelay="0.00" arrival="151.00" arrivalLane="4[1][1][1]_1" arrivalPos="170.54" arrivalSpeed="11.26" duration="127.00" routeLength="551.60" waitingTime="70.00" waitingCount="1" stopTime="0.00" timeLoss="81.79" rerouteNo="0" devices="tripinfo_Borgo_20_4" vType="passenger2b" speedFactor="0.90" vaporized=""/>
    <tripinfo id="Nigrisoli_50_6" depart="37.00" departLane="65_0" departPos="0.00" departSpeed="0.00" departDelay="0.00" arrival="151.00" arrivalLane="35[1][1][1][1]_0" arrivalPos="257.67" arrivalSpeed="13.14" duration="114.00" routeLength="1161.06" waitingTime="17.00" waitingCount="1" stopTime="0.00" timeLoss="29.96" rerouteNo="0" devices="tripinfo_Nigrisoli_50_6" vType="ignoring1" speedFactor="1.00" vaporized=""/>
    <tripinfo id="Borgo_20_6" depart="36.00" departLane="6_1" departPos="0.00" departSpeed="0.00" departDelay="0.00" arrival="152.00" arrivalLane="4[1][1][1]_1" arrivalPos="170.54" arrivalSpeed="14.02" duration="116.00" routeLength="551.60" waitingTime="64.00" waitingCount="1" stopTime="0.00" timeLoss="81.85" rerouteNo="0" devices="tripinfo_Borgo_20_6" vType="passenger4" speedFactor="1.18" vaporized=""/>
    <tripinfo id="Malvasia_30_15" depart="72.00" departLane="52_0" departPos="0.00" departSpeed="0.00" departDelay="0.00" arrival="152.00" arrivalLane="70_0" arrivalPos="59.87" arrivalSpeed="15.39" duration="80.00" routeLength="958.97" waitingTime="1.00" waitingCount="1" stopTime="0.00" timeLoss="18.62" rerouteNo="0" devices="tripinfo_Malvasia_30_15" vType="passenger3" speedFactor="1.15" vaporized=""/>
    <tripinfo id="Borgo_20_7" depart="42.00" departLane="6_1" departPos="0.00" departSpeed="0.00" departDelay="0.00" arrival="154.00" arrivalLane="4[1][1][1]_1" arrivalPos="170.54" arrivalSpeed="13.07" duration="112.00" routeLength="551.60" waitingTime="58.00" waitingCount="1" stopTime="0.00" timeLoss="71.99" rerouteNo="0" devices="tripinfo_Borgo_20_7" vType="passenger1" speedFactor="1.01" vaporized=""/>
    <tripinfo id="Borgo_20_9" depart="54.00" departLane="6_1" departPos="0.00" departSpeed="0.00" departDelay="0.00" arrival="157.00" arrivalLane="4[1][1][1]_1" arrivalPos="170.54" arrivalSpeed="13.84" duration="103.00" routeLength="551.60" waitingTime="50.00" waitingCount="1" stopTime="0.00" timeLoss="62.99" rerouteNo="0" devices="tripinfo_Borgo_20_9" vType="passenger4" speedFactor="1.01" vaporized=""/>
    <tripinfo id="Prati_Capraia_100_20" depart="97.00" departLane="3[0]_1" departPos="0.00" departSpeed="0.00" departDelay="0.00" arrival="158.00" arrivalLane="3[1]b_0" arrivalPos="238.77" arrivalSpeed="11.40" duration="61.00" routeLength="624.48" waitingTime="0.00" waitingCount="0" stopTime="0.00" timeLoss="6.01" rerouteNo="0" devices="tripinfo_Prati_Capraia_100_20" vType="passenger2a" speedFactor="0.83" vaporized=""/>
    <tripinfo id="Borgo_20_13" depart="79.00" departLane="6_1" departPos="0.00" departSpeed="0.00" departDelay="0.00" arrival="162.00" arrivalLane="4[1][1][1]_1" arrivalPos="170.54" arrivalSpeed="13.34" duration="83.00" routeLength="551.60" waitingTime="26.00" waitingCount="1" stopTime="0.00" timeLoss="40.10" rerouteNo="0" devices="tripinfo_Borgo_20_13" vType="passenger2a" speedFactor="0.96" vaporized=""/>
    <tripinfo id="Borgo_100_0" depart="0.00" departLane="6_0" departPos="0.00" departSpeed="0.00" departDelay="0.00" arrival="163.00" arrivalLane="3[1]b_0" arrivalPos="238.77" arrivalSpeed="13.51" duration="163.00" routeLength="797.07" waitingTime="90.00" waitingCount="1" stopTime="0.00" timeLoss="102.96" rerouteNo="0" devices="tripinfo_Borgo_100_0" vType="passenger4" speedFactor="0.98" vaporized=""/>
    <tripinfo id="Borgo_100_2" depart="12.00" departLane="6_0" departPos="0.00" departSpeed="0.00" departDelay="0.00" arrival="163.00" arrivalLane="3[1]b_1" arrivalPos="238.77" arrivalSpeed="13.50" duration="151.00" routeLength="797.07" waitingTime="82.00" waitingCount="1" stopTime="0.00" timeLoss="95.79" rerouteNo="0" devices="tripinfo_Borgo_100_2" vType="passenger2a" speedFactor="1.07" vaporized=""/>
    <tripinfo id="Borgo_20_16" depart="97.00" departLane="6_1" departPos="0.00" departSpeed="0.00" departDelay="0.00" arrival="163.00" arrivalLane="4[1][1][1]_1" arrivalPos="170.54" arrivalSpeed="14.64" duration="66.00" routeLength="551.60" waitingTime="14.00" waitingCount="1" stopTime="0.00" timeLoss="29.43" rerouteNo="0" devices="tripinfo_Borgo_20_16" vType="passenger2b" speedFactor="1.11" vaporized=""/>
    <tripinfo id="Montefiorino_90_1" depart="4.00" departLane="43_0" departPos="0.00" departSpeed="0.00" departDelay="0.00" arrival="164.00" arrivalLane="2[1][1][1]b_0" arrivalPos="324.74" arrivalSpeed="14.19" duration="160.00" routeLength="1198.14" waitingTime="70.00" waitingCount="1" stopTime="0.00" timeLoss="80.64" rerouteNo="0" devices="tripinfo_Montefiorino_90_1" vType="passenger1" speedFactor="1.10" vaporized=""/>
    <tripinfo id="Borgo_100_11" depart="66.00" departLane="6_0" departPos="0.00" departSpeed="0.00" departDelay="0.00" arrival="164.00" arrivalLane="3[1]b_1" arrivalPos="238.77" arrivalSpeed="15.72" duration="98.00" routeLength="797.07" waitingTime="32.00" waitingCount="1" stopTime="0.00" timeLoss="48.12" rerouteNo="0" devices="tripinfo_Borgo_100_11" vType="passenger1" speedFactor="1.17" vaporized=""/>
    <tripinfo id="Borgo_100_8" depart="48.00" departLane="6_0" departPos="0.00" departSpeed="0.00" departDelay="0.00" arrival="166.00" arrivalLane="3[1]b_0" arrivalPos="238.77" arrivalSpeed="13.39" duration="118.00" routeLength="797.07" waitingTime="47.00" waitingCount="1" stopTime="0.00" timeLoss="60.18" rerouteNo="0" devices="tripinfo_Borgo_100_8" vType="passenger4" speedFactor="1.01" vaporized=""/>
    <tripinfo id="Pertini_102_24" depart="56.00" departLane="13[0]_0" departPos="0.00" departSpeed="0.00" departDelay="5.00" arrival="167.00" arrivalLane="29[0]_0" arrivalPos="129.99" arrivalSpeed="12.67" duration="111.00" routeLength="818.26" waitingTime="25.00" waitingCount="2" stopTime="0.00" timeLoss="48.82" rerouteNo="0" devices="tripinfo_Pertini_102_24" vType="passenger2b" speedFactor="0.98" vaporized=""/>
    <tripinfo id="Saffi_20_5" depart="14.00" departLane="12_0" departPos="0.00" departSpeed="0.00" departDelay="0.00" arrival="168.00" arrivalLane="4[1][1][1]_0" arrivalPos="170.54" arrivalSpeed="15.87" duration="154.00" routeLength="1784.64" waitingTime="24.00" waitingCount="2" stopTime="0.00" timeLoss="43.12" rerouteNo="0" devices="tripinfo_Saffi_20_5" vType="passenger2a" speedFactor="1.17" vaporized=""/>