<?xml version="1.0" encoding="UTF-8"?>

<!-- generated on 2025-10-25 13:46:28 by Eclipse SUMO GUI Version 1.21.0
<sumoConfiguration xmlns:xsi="http://www.w3.org/2001/XMLSchema-instance" xsi:noNamespaceSchemaLocation="http://sumo.dlr.de/xsd/sumoConfiguration.xsd">

    <input>
        <net-file value="E:\Users\35601\Desktop\sumo-rl-副本\net\bologna\acosta\acosta_buslanes.net.xml"/>
        <route-files value="E:\Users\35601\Desktop\sumo-rl-副本\net\bologna\acosta\acosta.rou.xml,E:\Users\35601\Desktop\sumo-rl-副本\net\bologna\acosta\acosta_busses.rou.xml"/>
        <additional-files value="E:\Users\35601\Desktop\sumo-rl-副本\net\bologna\acosta\acosta_vtypes.add.xml,E:\Users\35601\Desktop\sumo-rl-副本\net\bologna\acosta\acosta_detectors.add.xml,E:\Users\35601\Desktop\sumo-rl-副本\net\bologna\acosta\acosta_bus_stops.add.xml,E:\Users\35601\Desktop\sumo-rl-副本\net\bologna\acosta\acosta_tls.add.xml"/>
    </input>

    <output>
        <tripinfo-output value="E:\Users\35601\Desktop\sumo-rl-副本\net\bologna\acosta\tripinfos.xml"/>
    </output>

    <report>
        <log value="E:\Users\35601\Desktop\sumo-rl-副本\net\bologna\acosta\sumo_log.txt"/>
        <no-step-log value="true"/>
    </report>

    <gui_only>
        <gui-settings-file value="E:\Users\35601\Desktop\sumo-rl-副本\net\bologna\acosta\settings.gui.xml"/>
    </gui_only>

</sumoConfiguration>
-->

<tripinfos xmlns:xsi="http://www.w3.org/2001/XMLSchema-instance" xsi:noNamespaceSchemaLocation="http://sumo.dlr.de/xsd/tripinfo_file.xsd">
    <tripinfo id="Pepoli_8_16" depart="27.00" departLane="210_0" departPos="0.00" departSpeed="0.00" departDelay="0.00" arrival="81.00" arrivalLane="134b_0" arrivalPos="156.17" arrivalSpeed="14.48" duration="54.00" routeLength="692.71" waitingTime="0.00" waitingCount="0" stopTime="0.00" timeLoss="7.27" rerouteNo="0" devices="tripinfo_Pepoli_8_16" vType="passenger1" speedFactor="1.09" vaporized=""/>
    <tripinfo id="Pepoli_8_21" depart="37.00" departLane="210_0" departPos="0.00" departSpeed="0.00" departDelay="1.00" arrival="92.00" arrivalLane="134b_0" arrivalPos="156.17" arrivalSpeed="16.10" duration="55.00" routeLength="692.71" waitingTime="0.00" waitingCount="0" stopTime="0.00" timeLoss="13.74" rerouteNo="0" devices="tripinfo_Pepoli_8_21" vType="passenger1" speedFactor="1.25" vaporized=""/>
    <tripinfo id="Pepoli_8_23" depart="39.00" departLane="210_0" departPos="0.00" departSpeed="0.00" departDelay="0.00" arrival="96.00" arrivalLane="134b_0" arrivalPos="156.17" arrivalSpeed="15.16" duration="57.00" routeLength="692.71" waitingTime="0.00" waitingCount="0" stopTime="0.00" timeLoss="11.19" rerouteNo="0" devices="tripinfo_Pepoli_8_23" vType="passenger1" speedFactor="1.13" vaporized=""/>
    <tripinfo id="Pepoli_8_25" depart="42.00" departLane="210_0" departPos="0.00" departSpeed="0.00" departDelay="0.00" arrival="99.00" arrivalLane="134b_0" arrivalPos="156.17" arrivalSpeed="13.28" duration="57.00" routeLength="692.71" waitingTime="0.00" waitingCount="0" stopTime="0.00" timeLoss="7.51" rerouteNo="0" devices="tripinfo_Pepoli_8_25" vType="passenger2a" speedFactor="1.03" vaporized=""/>
    <tripinfo id="Togliatti_2_8" depart="11.00" departLane="85_0" departPos="0.00" departSpeed="0.00" departDelay="0.00" arrival="101.00" arrivalLane="77[1][1]_0" arrivalPos="463.98" arrivalSpeed="15.13" duration="90.00" routeLength="1145.48" waitingTime="0.00" waitingCount="0" stopTime="0.00" timeLoss="12.38" rerouteNo="0" devices="tripinfo_Togliatti_2_8" vType="passenger2a" speedFactor="1.10" vaporized=""/>
    <tripinfo id="Costa_12_0" depart="0.00" departLane="78[0]_0" departPos="0.00" departSpeed="0.00" departDelay="0.00" arrival="112.00" arrivalLane="136_0" arrivalPos="186.20" arrivalSpeed="14.76" duration="112.00" routeLength="1416.38" waitingTime="0.00" waitingCount="0" stopTime="0.00" timeLoss="15.05" rerouteNo="0" devices="tripinfo_Costa_12_0" vType="passenger1" speedFactor="1.08" vaporized=""/>
    <tripinfo id="Costa_1_2" depart="8.00" departLane="78[0]_0" departPos="0.00" departSpeed="0.00" departDelay="3.00" arrival="113.00" arrivalLane="86_0" arrivalPos="321.19" arrivalSpeed="13.59" duration="105.00" routeLength="1191.67" waitingTime="1.00" waitingCount="1" stopTime="0.00" timeLoss="18.50" rerouteNo="0" devices="tripinfo_Costa_1_2" vType="passenger2b" speedFactor="1.02" vaporized=""/>
    <tripinfo id="Costa_1_4" depart="14.00" departLane="78[0]_0" departPos="0.00" departSpeed="0.00" departDelay="4.00" arrival="113.00" arrivalLane="86_1" arrivalPos="321.19" arrivalSpeed="12.58" duration="99.00" routeLength="1182.48" waitingTime="0.00" waitingCount="0" stopTime="0.00" timeLoss="10.82" rerouteNo="0" devices="tripinfo_Costa_1_4" vType="passenger2a" speedFactor="0.99" vaporized=""/>
    <tripinfo id="Costa_12_1" depart="6.00" departLane="78[0]_0" departPos="0.00" departSpeed="0.00" departDelay="4.00" arrival="118.00" arrivalLane="136_0" arrivalPos="186.20" arrivalSpeed="14.96" duration="112.00" routeLength="1416.38" waitingTime="0.00" waitingCount="0" stopTime="0.00" timeLoss="16.17" rerouteNo="0" devices="tripinfo_Costa_12_1" vType="passenger2b" speedFactor="1.09" vaporized=""/>
    <tripinfo id="Audinot_7_0" depart="0.00" departLane="131_0" departPos="0.00" departSpeed="0.00" departDelay="0.00" arrival="124.00" arrivalLane="209_0" arrivalPos="395.59" arrivalSpeed="13.54" duration="124.00" routeLength="873.23" waitingTime="43.00" waitingCount="1" stopTime="0.00" timeLoss="57.66" rerouteNo="0" devices="tripinfo_Audinot_7_0" vType="passenger4" speedFactor="0.98" vaporized=""/>
    <tripinfo id="Costa_3_21" depart="55.00" departLane="78[0]_0" departPos="0.00" departSpeed="0.00" departDelay="1.00" arrival="128.00" arrivalLane="14_0" arrivalPos="77.26" arrivalSpeed="15.63" duration="73.00" routeLength="850.23" waitingTime="0.00" waitingCount="0" stopTime="0.00" timeLoss="17.16" rerouteNo="0" devices="tripinfo_Costa_3_21" vType="passenger1" speedFactor="1.13" vaporized=""/>
    <tripinfo id="Costa_12_3" depart="11.00" departLane="78[0]_0" departPos="0.00" departSpeed="0.00" departDelay="4.00" arrival="131.00" arrivalLane="136_0" arrivalPos="186.20" arrivalSpeed="13.26" duration="120.00" routeLength="1416.38" waitingTime="0.00" waitingCount="0" stopTime="0.00" timeLoss="16.15" rerouteNo="0" devices="tripinfo_Costa_12_3" vType="passenger1" speedFactor="1.01" vaporized=""/>
    <tripinfo id="Costa_12_7" depart="20.00" departLane="78[0]_0" departPos="0.00" departSpeed="0.00" departDelay="2.00" arrival="133.00" arrivalLane="136_0" arrivalPos="186.20" arrivalSpeed="14.67" duration="113.00" routeLength="1416.38" waitingTime="0.00" waitingCount="0" stopTime="0.00" timeLoss="18.33" rerouteNo="0" devices="tripinfo_Costa_12_7" vType="passenger5" speedFactor="1.10" vaporized=""/>
    <tripinfo id="Costa_12_11" depart="29.00" departLane="78[0]_0" departPos="0.00" departSpeed="0.00" departDelay="1.00" arrival="144.00" arrivalLane="136_0" arrivalPos="186.20" arrivalSpeed="14.64" duration="115.00" routeLength="1413.55" waitingTime="0.00" waitingCount="0" stopTime="0.00" timeLoss="18.27" rerouteNo="0" devices="tripinfo_Costa_12_11" vType="passenger2a" speedFactor="1.08" vaporized=""/>
    <tripinfo id="Turati_3_2" depart="69.00" departLane="195_0" departPos="0.00" departSpeed="0.00" departDelay="0.00" arrival="146.00" arrivalLane="14_0" arrivalPos="77.26" arrivalSpeed="13.71" duration="77.00" routeLength="947.57" waitingTime="0.00" waitingCount="0" stopTime="0.00" timeLoss="7.87" rerouteNo="0" devices="tripinfo_Turati_3_2" vType="ignoring1" speedFactor="1.00" vaporized=""/>
    <tripinfo id="Pepoli_8_28" depart="48.00" departLane="210_0" departPos="0.00" departSpeed="0.00" departDelay="0.00" arrival="153.00" arrivalLane="134b_0" arrivalPos="156.17" arrivalSpeed="15.14" duration="105.00" routeLength="692.71" waitingTime="41.00" waitingCount="1" stopTime="0.00" timeLoss="59.30" rerouteNo="0" devices="tripinfo_Pepoli_8_28" vType="passenger3" speedFactor="1.13" vaporized=""/>
    <tripinfo id="Pepoli_3_0" depart="0.00" departLane="210_2" departPos="0.00" departSpeed="0.00" departDelay="0.00" arrival="157.00" arrivalLane="14_0" arrivalPos="77.26" arrivalSpeed="13.81" duration="157.00" routeLength="1941.55" waitingTime="0.00" waitingCount="0" stopTime="0.00" timeLoss="15.12" rerouteNo="0" devices="tripinfo_Pepoli_3_0" vType="ignoring2b" speedFactor="1.00" vaporized=""/>
    <tripinfo id="Silvani_11_9" depart="21.00" departLane="203[0]_0" departPos="0.00" departSpeed="0.00" departDelay="0.00" arrival="157.00" arrivalLane="114_1" arrivalPos="692.70" arrivalSpeed="15.02" duration="136.00" routeLength="1114.25" waitingTime="46.00" waitingCount="1" stopTime="0.00" timeLoss="65.51" rerouteNo="0" devices="tripinfo_Silvani_11_9" vType="passenger4" speedFactor="1.15" vaporized=""/>
    <tripinfo id="bus_81_0" depart="4.00" departLane="55_0" departPos="0.00" departSpeed="0.00" departDelay="4.00" arrival="159.00" arrivalLane="114_0" arrivalPos="692.70" arrivalSpeed="12.72" duration="155.00" routeLength="1058.08" waitingTime="13.00" waitingCount="1" stopTime="40.00" timeLoss="38.36" rerouteNo="0" devices="tripinfo_bus_81_0" vType="bus" speedFactor="1.00" vaporized=""/>
    <tripinfo id="Togliatti_12_15" depart="21.00" departLane="85_2" departPos="0.00" departSpeed="0.00" departDelay="0.00" arrival="159.00" arrivalLane="136_0" arrivalPos="186.20" arrivalSpeed="12.02" duration="138.00" routeLength="909.95" waitingTime="51.00" waitingCount="1" stopTime="0.00" timeLoss="65.56" rerouteNo="0" devices="tripinfo_Togliatti_12_15" vType="passenger3" speedFactor="0.94" vaporized=""/>
    <tripinfo id="Pepoli_3_2" depart="3.00" departLane="210_2" departPos="0.00" departSpeed="0.00" departDelay="0.00" arrival="160.00" arrivalLane="14_0" arrivalPos="77.26" arrivalSpeed="13.75" duration="157.00" routeLength="1941.55" waitingTime="0.00" waitingCount="0" stopTime="0.00" timeLoss="15.02" rerouteNo="0" devices="tripinfo_Pepoli_3_2" vType="ignoring1" speedFactor="1.00" vaporized=""/>
    <tripinfo id="Togliatti_12_24" depart="34.00" departLane="85_2" departPos="0.00" departSpeed="0.00" departDelay="0.00" arrival="161.00" arrivalLane="136_0" arrivalPos="186.20" arrivalSpeed="13.00" duration="127.00" routeLength="909.95" waitingTime="40.00" waitingCount="1" stopTime="0.00" timeLoss="55.32" rerouteNo="0" devices="tripinfo_Togliatti_12_24" vType="passenger1" speedFactor="0.95" vaporized=""/>
    <tripinfo id="Silvani_11_1" depart="3.00" departLane="203[0]_0" departPos="0.00" departSpeed="0.00" departDelay="1.00" arrival="162.00" arrivalLane="114_0" arrivalPos="692.70" arrivalSpeed="12.03" duration="159.00" routeLength="1114.25" waitingTime="54.00" waitingCount="1" stopTime="0.00" timeLoss="70.96" rerouteNo="0" devices="tripinfo_Silvani_11_1" vType="passenger2b" speedFactor="0.92" vaporized=""/>
    <tripinfo id="Togliatti_12_48" depart="68.00" departLane="85_2" departPos="0.00" departSpeed="0.00" departDelay="0.00" arrival="162.00" arrivalLane="136_0" arrivalPos="186.20" arrivalSpeed="14.32" duration="94.00" routeLength="909.95" waitingTime="8.00" waitingCount="1" stopTime="0.00" timeLoss="29.21" rerouteNo="0" devices="tripinfo_Togliatti_12_48" vType="passenger2a" speedFactor="1.04" vaporized=""/>
    <tripinfo id="bus_13_0" depart="0.00" departLane="55_0" departPos="0.00" departSpeed="0.00" departDelay="0.00" arrival="163.00" arrivalLane="114_1" arrivalPos="692.70" arrivalSpeed="12.99" duration="163.00" routeLength="1058.08" waitingTime="19.00" waitingCount="1" stopTime="40.00" timeLoss="46.37" rerouteNo="0" devices="tripinfo_bus_13_0" vType="bus" speedFactor="1.00" vaporized=""/>
    <tripinfo id="Pepoli_10_10" depart="17.00" departLane="210_0" departPos="0.00" departSpeed="0.00" departDelay="0.00" arrival="163.00" arrivalLane="204[1][1]_1" arrivalPos="435.51" arrivalSpeed="16.12" duration="146.00" routeLength="1470.65" waitingTime="25.00" waitingCount="1" stopTime="0.00" timeLoss="54.48" rerouteNo="0" devices="tripinfo_Pepoli_10_10" vType="passenger2a" speedFactor="1.17" vaporized=""/>
    <tripinfo id="Silvani_11_8" depart="18.00" departLane="203[0]_0" departPos="0.00" departSpeed="0.00" departDelay="0.00" arrival="163.00" arrivalLane="114_2" arrivalPos="692.70" arrivalSpeed="12.26" duration="145.00" routeLength="1114.25" waitingTime="47.00" waitingCount="1" stopTime="0.00" timeLoss="61.02" rerouteNo="0" devices="tripinfo_Silvani_11_8" vType="passenger3" speedFactor="0.96" vaporized=""/>
    <tripinfo id="Togliatti_12_59" depart="84.00" departLane="85_2" departPos="0.00" departSpeed="0.00" departDelay="0.00" arrival="164.00" arrivalLane="136_0" arrivalPos="186.20" arrivalSpeed="15.22" duration="80.00" routeLength="909.95" waitingTime="0.00" waitingCount="0" stopTime="0.00" timeLoss="19.53" rerouteNo="0" devices="tripinfo_Togliatti_12_59" vType="passenger1" speedFactor="1.12" vaporized=""/>
    <tripinfo id="Silvani_11_13" depart="30.00" departLane="203[0]_0" departPos="0.00" departSpeed="0.00" departDelay="0.00" arrival="165.00" arrivalLane="114_2" arrivalPos="692.70" arrivalSpeed="13.66" duration="135.00" routeLength="1114.25" waitingTime="41.00" waitingCount="1" stopTime="0.00" timeLoss="58.02" rerouteNo="0" devices="tripinfo_Silvani_11_13" vType="passenger1" speedFactor="1.06" vaporized=""/>
    <tripinfo id="Silvani_11_14" depart="33.00" departLane="203[0]_0" departPos="0.00" departSpeed="0.00" departDelay="0.00" arrival="165.00" arrivalLane="114_1" arrivalPos="692.70" arrivalSpeed="15.30" duration="132.00" routeLength="1114.25" waitingTime="40.00" waitingCount="1" stopTime="0.00" timeLoss="61.29" rerouteNo="0" devices="tripinfo_Silvani_11_14" vType="passenger3" speedFactor="1.14" vaporized=""/>
    <tripinfo id="Pepoli_8_44" depart="75.00" departLane="210_0" departPos="0.00" departSpeed="0.00" departDelay="0.00" arrival="166.00" arrivalLane="134b_0" arrivalPos="156.17" arrivalSpeed="10.80" duration="91.00" routeLength="692.71" waitingTime="15.00" waitingCount="1" stopTime="0.00" timeLoss="30.53" rerouteNo="0" devices="tripinfo_Pepoli_8_44" vType="passenger3" speedFactor="0.85" vaporized=""/>
    <tripinfo id="Silvani_11_12" depart="28.00" departLane="203[0]_0" departPos="0.00" departSpeed="0.00" departDelay="0.00" arrival="167.00" arrivalLane="114_1" arrivalPos="692.70" arrivalSpeed="13.48" duration="139.00" routeLength="1114.25" waitingTime="42.00" waitingCount="1" stopTime="0.00" timeLoss="56.40" rerouteNo="0" devices="tripinfo_Silvani_11_12" vType="passenger2b" speedFactor="0.98" vaporized=""/>
    <tripinfo id="Pepoli_8_48" depart="82.00" departLane="210_0" departPos="0.00" departSpeed="0.00" departDelay="0.00" arrival="167.00" arrivalLane="134b_0" arrivalPos="156.17" arrivalSpeed="11.58" duration="85.00" routeLength="692.71" waitingTime="14.00" waitingCount="1" stopTime="0.00" timeLoss="38.89" rerouteNo="0" devices="tripinfo_Pepoli_8_48" vType="passenger2a" speedFactor="1.11" vaporized=""/>
    <tripinfo id="Silvani_11_0" depart="0.00" departLane="203[0]_0" departPos="0.00" departSpeed="0.00" departDelay="0.00" arrival="168.00" arrivalLane="114_0" arrivalPos="692.70" arrivalSpeed="11.03" duration="168.00" routeLength="1114.25" waitingTime="56.00" waitingCount="1" stopTime="0.00" timeLoss="70.31" rerouteNo="0" devices="tripinfo_Silvani_11_0" vType="passenger3" speedFactor="0.83" vaporized=""/>
    <tripinfo id="XXI_Aprile_2_12" depart="42.00" departLane="13_0" departPos="0.00" departSpeed="0.00" departDelay="0.00" arrival="168.00" arrivalLane="77[1][1]_0" arrivalPos="463.98" arrivalSpeed="14.82" duration="126.00" routeLength="976.81" waitingTime="34.00" waitingCount="2" stopTime="0.00" timeLoss="61.06" rerouteNo="0" devices="tripinfo_XXI_Aprile_2_12" vType="passenger4" speedFactor="1.10" vaporized=""/>
    <tripinfo id="bus_91_0" depart="8.00" departLane="55_0" departPos="0.00" departSpeed="0.00" departDelay="8.00" arrival="169.00" arrivalLane="114_0" arrivalPos="692.70" arrivalSpeed="12.51" duration="161.00" routeLength="1058.08" waitingTime="17.00" waitingCount="1" stopTime="40.00" timeLoss="44.68" rerouteNo="0" devices="tripinfo_bus_91_0" vType="bus" speedFactor="1.00" vaporized=""/>
    <tripinfo id="Silvani_11_16" depart="37.00" departLane="203[0]_0" departPos="0.00" departSpeed="0.00" departDelay="0.00" arrival="169.00" arrivalLane="114_1" arrivalPos="692.70" arrivalSpeed="13.12" duration="132.00" routeLength="1114.25" waitingTime="37.00" waitingCount="1" stopTime="0.00" timeLoss="52.73" rerouteNo="0" devices="tripinfo_Silvani_11_16" vType="passenger3" speedFactor="1.02" vaporized=""/>
    <tripinfo id="Pepoli_8_51" depart="87.00" departLane="210_0" departPos="0.00" departSpeed="0.00" departDelay="0.00" arrival="169.00" arrivalLane="134b_0" arrivalPos="156.17" arrivalSpeed="12.62" duration="82.00" routeLength="692.71" waitingTime="12.00" waitingCount="1" stopTime="0.00" timeLoss="27.70" rerouteNo="0" devices="tripinfo_Pepoli_8_51" vType="passenger1" speedFactor="0.94" vaporized=""/>
    <tripinfo id="Vittorio_Veneto_1_4" depart="18.00" departLane="224[0]_0" departPos="0.00" departSpeed="0.00" departDelay="0.00" arrival="170.00" arrivalLane="86_0" arrivalPos="321.19" arrivalSpeed="13.55" duration="152.00" routeLength="1143.28" waitingTime="54.00" waitingCount="1" stopTime="0.00" timeLoss="68.05" rerouteNo="0" devices="tripinfo_Vittorio_Veneto_1_4" vType="passenger1" speedFactor="1.00" vaporized=""/>
    <tripinfo id="Pepoli_10_4" depart="6.00" departLane="210_0" departPos="0.00" departSpeed="0.00" departDelay="0.00" arrival="171.00" arrivalLane="204[1][1]_0" arrivalPos="435.51" arrivalSpeed="11.13" duration="165.00" routeLength="1470.65" waitingTime="33.00" waitingCount="1" stopTime="0.00" timeLoss="45.66" rerouteNo="0" devices="tripinfo_Pepoli_10_4" vType="passenger2b" speedFactor="0.89" vaporized=""/>
    <tripinfo id="Togliatti_71_2" depart="2.00" departLane="85_1" departPos="0.00" departSpeed="0.00" departDelay="0.00" arrival="172.00" arrivalLane="209_0" arrivalPos="395.59" arrivalSpeed="15.22" duration="170.00" routeLength="2025.50" waitingTime="19.00" waitingCount="1" stopTime="0.00" timeLoss="38.99" rerouteNo="0" devices="tripinfo_Togliatti_71_2" vType="passenger1" speedFactor="1.12" vaporized=""/>
    <tripinfo id="Silvani_11_24" depart="57.00" departLane="203[0]_0" departPos="0.00" departSpeed="0.00" departDelay="1.00" arrival="172.00" arrivalLane="114_1" arrivalPos="692.70" arrivalSpeed="14.32" duration="115.00" routeLength="1114.25" waitingTime="21.00" waitingCount="1" stopTime="0.00" timeLoss="38.81" rerouteNo="0" devices="tripinfo_Silvani_11_24" vType="passenger1" speedFactor="1.06" vaporized=""/>
    <tripinfo id="Silvani_7_4" depart="9.00" departLane="203[0]_1" departPos="0.00" departSpeed="0.00" departDelay="0.00" arrival="173.00" arrivalLane="209_2" arrivalPos="395.59" arrivalSpeed="15.81" duration="164.00" routeLength="1451.40" waitingTime="55.00" waitingCount="1" stopTime="0.00" timeLoss="72.82" rerouteNo="0" devices="tripinfo_Silvani_7_4" vType="passenger2a" speedFactor="1.15" vaporized=""/>
    <tripinfo id="Pepoli_10_11" depart="19.00" departLane="210_0" departPos="0.00" departSpeed="0.00" departDelay="1.00" arrival="174.00" arrivalLane="204[1][1]_0" arrivalPos="435.51" arrivalSpeed="12.27" duration="155.00" routeLength="1470.65" waitingTime="18.00" waitingCount="1" stopTime="0.00" timeLoss="36.42" rerouteNo="0" devices="tripinfo_Pepoli_10_11" vType="passenger4" speedFactor="0.90" vaporized=""/>
    <tripinfo id="Silvani_11_27" depart="63.00" departLane="203[0]_0" departPos="0.00" departSpeed="0.00" departDelay="0.00" arrival="174.00" arrivalLane="114_1" arrivalPos="692.70" arrivalSpeed="14.79" duration="111.00" routeLength="1114.25" waitingTime="19.00" waitingCount="1" stopTime="0.00" timeLoss="35.14" rerouteNo="0" devices="tripinfo_Silvani_11_27" vType="passenger2a" speedFactor="1.07" vaporized=""/>
    <tripinfo id="Silvani_11_17" depart="40.00" departLane="203[0]_0" departPos="0.00" departSpeed="0.00" departDelay="0.00" arrival="175.00" arrivalLane="114_0" arrivalPos="692.70" arrivalSpeed="12.62" duration="135.00" routeLength="1114.25" waitingTime="34.00" waitingCount="1" stopTime="0.00" timeLoss="49.22" rerouteNo="0" devices="tripinfo_Silvani_11_17" vType="passenger3" speedFactor="0.94" vaporized=""/>
    <tripinfo id="Togliatti_71_0" depart="0.00" departLane="85_1" departPos="0.00" departSpeed="0.00" departDelay="0.00" arrival="176.00" arrivalLane="209_0" arrivalPos="395.59" arrivalSpeed="13.64" duration="176.00" routeLength="2025.50" waitingTime="12.00" waitingCount="1" stopTime="0.00" timeLoss="28.50" rerouteNo="0" devices="tripinfo_Togliatti_71_0" vType="passenger2b" speedFactor="1.00" vaporized=""/>
    <tripinfo id="Togliatti_3_18" depart="25.00" departLane="85_0" departPos="0.00" departSpeed="0.00" departDelay="0.00" arrival="176.00" arrivalLane="14_0" arrivalPos="77.26" arrivalSpeed="12.44" duration="151.00" routeLength="1110.28" waitingTime="47.00" waitingCount="1" stopTime="0.00" timeLoss="61.42" rerouteNo="0" devices="tripinfo_Togliatti_3_18" vType="passenger2a" speedFactor="0.92" vaporized=""/>
    <tripinfo id="Pepoli_10_19" depart="32.00" departLane="210_1" departPos="0.00" departSpeed="0.00" departDelay="0.00" arrival="176.00" arrivalLane="204[1][1]_0" arrivalPos="435.51" arrivalSpeed="12.24" duration="144.00" routeLength="1470.65" waitingTime="12.00" waitingCount="1" stopTime="0.00" timeLoss="26.30" rerouteNo="0" devices="tripinfo_Pepoli_10_19" vType="passenger1" speedFactor="0.91" vaporized=""/>
    <tripinfo id="Silvani_11_32" depart="76.00" departLane="203[0]_0" departPos="0.00" departSpeed="0.00" departDelay="1.00" arrival="176.00" arrivalLane="114_1" arrivalPos="692.70" arrivalSpeed="13.33" duration="100.00" routeLength="1114.25" waitingTime="7.00" waitingCount="1" stopTime="0.00" timeLoss="22.74" rerouteNo="0" devices="tripinfo_Silvani_11_32" vType="passenger5" speedFactor="1.04" vaporized=""/>
    <tripinfo id="Pepoli_10_18" depart="30.00" departLane="210_0" departPos="0.00" departSpeed="0.00" departDelay="0.00" arrival="177.00" arrivalLane="204[1][1]_1" arrivalPos="435.51" arrivalSpeed="13.59" duration="147.00" routeLength="1470.65" waitingTime="19.00" waitingCount="1" stopTime="0.00" timeLoss="46.04" rerouteNo="0" devices="tripinfo_Pepoli_10_18" vType="passenger1" speedFactor="1.05" vaporized=""/>
    <tripinfo id="Silvani_7_7" depart="16.00" departLane="203[0]_1" departPos="0.00" departSpeed="0.00" departDelay="0.00" arrival="178.00" arrivalLane="209_0" arrivalPos="395.59" arrivalSpeed="14.71" duration="162.00" routeLength="1451.40" waitingTime="48.00" waitingCount="1" stopTime="0.00" timeLoss="62.90" rerouteNo="0" devices="tripinfo_Silvani_7_7" vType="passenger2a" speedFactor="1.06" vaporized=""/>
    <tripinfo id="Togliatti_3_31" depart="44.00" departLane="85_0" departPos="0.00" departSpeed="0.00" departDelay="0.00" arrival="178.00" arrivalLane="14_0" arrivalPos="77.26" arrivalSpeed="13.80" duration="134.00" routeLength="1110.28" waitingTime="34.00" waitingCount="1" stopTime="0.00" timeLoss="54.25" rerouteNo="0" devices="tripinfo_Togliatti_3_31" vType="passenger1" speedFactor="1.04" vaporized=""/>
    <tripinfo id="Silvani_11_23" depart="54.00" departLane="203[0]_0" departPos="0.00" departSpeed="0.00" departDelay="0.00" arrival="178.00" arrivalLane="114_0" arrivalPos="692.70" arrivalSpeed="11.98" duration="124.00" routeLength="1114.25" waitingTime="23.00" waitingCount="1" stopTime="0.00" timeLoss="36.01" rerouteNo="0" devices="tripinfo_Silvani_11_23" vType="passenger3" speedFactor="0.91" vaporized=""/>
    <tripinfo id="Silvani_11_33" depart="79.00" departLane="203[0]_0" departPos="0.00" departSpeed="0.00" departDelay="2.00" arrival="178.00" arrivalLane="114_1" arrivalPos="692.70" arrivalSpeed="13.51" duration="99.00" routeLength="1114.25" waitingTime="7.00" waitingCount="1" stopTime="0.00" timeLoss="21.55" rerouteNo="0" devices="tripinfo_Silvani_11_33" vType="passenger1" speedFactor="1.04" vaporized=""/>
    <tripinfo id="Pepoli_8_62" depart="106.00" departLane="210_0" departPos="0.00" departSpeed="0.00" departDelay="0.00" arrival="178.00" arrivalLane="134b_0" arrivalPos="156.17" arrivalSpeed="12.03" duration="72.00" routeLength="692.71" waitingTime="0.00" waitingCount="0" stopTime="0.00" timeLoss="15.64" rerouteNo="0" devices="tripinfo_Pepoli_8_62" vType="passenger1" speedFactor="0.90" vaporized=""/>
    <tripinfo id="Pepoli_8_70" depart="121.00" departLane="210_0" departPos="0.00" departSpeed="0.00" departDelay="1.00" arrival="180.00" arrivalLane="134b_0" arrivalPos="156.17" arrivalSpeed="14.39" duration="59.00" routeLength="692.71" waitingTime="0.00" waitingCount="0" stopTime="0.00" timeLoss="12.92" rerouteNo="0" devices="tripinfo_Pepoli_8_70" vType="passenger1" speedFactor="1.11" vaporized=""/>
    <tripinfo id="Togliatti_2_32" depart="47.00" departLane="85_0" departPos="0.00" departSpeed="0.00" departDelay="2.00" arrival="181.00" arrivalLane="77[1][1]_0" arrivalPos="463.98" arrivalSpeed="13.37" duration="134.00" routeLength="1145.48" waitingTime="33.00" waitingCount="1" stopTime="0.00" timeLoss="52.41" rerouteNo="0" devices="tripinfo_Togliatti_2_32" vType="passenger3" speedFactor="1.04" vaporized=""/>
    <tripinfo id="Pepoli_10_20" depart="34.00" departLane="210_0" departPos="0.00" departSpeed="0.00" departDelay="0.00" arrival="182.00" arrivalLane="204[1][1]_1" arrivalPos="435.51" arrivalSpeed="12.77" duration="148.00" routeLength="1470.65" waitingTime="11.00" waitingCount="1" stopTime="0.00" timeLoss="38.65" rerouteNo="0" devices="tripinfo_Pepoli_10_20" vType="passenger2a" speedFactor="0.97" vaporized=""/>
    <tripinfo id="Silvani_11_41" depart="96.00" departLane="203[0]_0" departPos="0.00" departSpeed="0.00" departDelay="0.00" arrival="182.00" arrivalLane="114_1" arrivalPos="692.70" arrivalSpeed="15.93" duration="86.00" routeLength="1114.25" waitingTime="0.00" waitingCount="0" stopTime="0.00" timeLoss="16.08" rerouteNo="0" devices="tripinfo_Silvani_11_41" vType="passenger1" speedFactor="1.16" vaporized=""/>
    <tripinfo id="Pepoli_8_75" depart="128.00" departLane="210_0" departPos="0.00" departSpeed="0.00" departDelay="0.00" arrival="182.00" arrivalLane="134b_0" arrivalPos="156.17" arrivalSpeed="16.37" duration="54.00" routeLength="692.71" waitingTime="0.00" waitingCount="0" stopTime="0.00" timeLoss="11.83" rerouteNo="0" devices="tripinfo_Pepoli_8_75" vType="passenger2b" speedFactor="1.22" vaporized=""/>
    <tripinfo id="Pepoli_10_22" depart="37.00" departLane="210_1" departPos="0.00" departSpeed="0.00" departDelay="0.00" arrival="183.00" arrivalLane="204[1][1]_0" arrivalPos="435.51" arrivalSpeed="10.88" duration="146.00" routeLength="1470.65" waitingTime="5.00" waitingCount="1" stopTime="0.00" timeLoss="23.30" rerouteNo="0" devices="tripinfo_Pepoli_10_22" vType="passenger2a" speedFactor="0.87" vaporized=""/>
    <tripinfo id="Silvani_7_2" depart="4.00" departLane="203[0]_1" departPos="0.00" departSpeed="0.00" departDelay="0.00" arrival="184.00" arrivalLane="209_0" arrivalPos="395.59" arrivalSpeed="12.28" duration="180.00" routeLength="1454.90" waitingTime="58.00" waitingCount="1" stopTime="0.00" timeLoss="69.74" rerouteNo="0" devices="tripinfo_Silvani_7_2" vType="passenger1" speedFactor="0.95" vaporized=""/>
    <tripinfo id="Silvani_7_15" depart="35.00" departLane="203[0]_1" departPos="0.00" departSpeed="0.00" departDelay="0.00" arrival="184.00" arrivalLane="209_2" arrivalPos="395.59" arrivalSpeed="14.61" duration="149.00" routeLength="1454.90" waitingTime="33.00" waitingCount="1" stopTime="0.00" timeLoss="51.19" rerouteNo="0" devices="tripinfo_Silvani_7_15" vType="passenger5" speedFactor="1.08" vaporized=""/>
    <tripinfo id="Silvani_7_11" depart="25.00" departLane="203[0]_0" departPos="0.00" departSpeed="0.00" departDelay="0.00" arrival="185.00" arrivalLane="209_1" arrivalPos="395.59" arrivalSpeed="13.08" duration="160.00" routeLength="1454.90" waitingTime="40.00" waitingCount="1" stopTime="0.00" timeLoss="57.69" rerouteNo="0" devices="tripinfo_Silvani_7_11" vType="passenger1" speedFactor="1.03" vaporized=""/>
    <tripinfo id="Silvani_7_5" depart="11.00" departLane="203[0]_0" departPos="0.00" departSpeed="0.00" departDelay="0.00" arrival="188.00" arrivalLane="209_0" arrivalPos="395.59" arrivalSpeed="11.78" duration="177.00" routeLength="1454.90" waitingTime="51.00" waitingCount="1" stopTime="0.00" timeLoss="64.88" rerouteNo="0" devices="tripinfo_Silvani_7_5" vType="passenger2a" speedFactor="0.94" vaporized=""/>
    <tripinfo id="Vittorio_Veneto_1_10" depart="45.00" departLane="224[0]_0" departPos="0.00" departSpeed="0.00" departDelay="0.00" arrival="188.00" arrivalLane="86_0" arrivalPos="321.19" arrivalSpeed="13.28" duration="143.00" routeLength="1143.28" waitingTime="47.00" waitingCount="1" stopTime="0.00" timeLoss="59.44" rerouteNo="0" devices="tripinfo_Vittorio_Veneto_1_10" vType="passenger1" speedFactor="1.01" vaporized=""/>
    <tripinfo id="Silvani_7_22" depart="51.00" departLane="203[0]_1" departPos="0.00" departSpeed="0.00" departDelay="0.00" arrival="188.00" arrivalLane="209_2" arrivalPos="395.59" arrivalSpeed="15.79" duration="137.00" routeLength="1454.90" waitingTime="21.00" waitingCount="1" stopTime="0.00" timeLoss="47.90" rerouteNo="0" devices="tripinfo_Silvani_7_22" vType="passenger1" speedFactor="1.18" vaporized=""/>
    <tripinfo id="Costa_3_33" depart="88.00" departLane="78[0]_0" departPos="0.00" departSpeed="0.00" departDelay="2.00" arrival="188.00" arrivalLane="14_0" arrivalPos="77.26" arrivalSpeed="13.09" duration="100.00" routeLength="850.23" waitingTime="4.00" waitingCount="1" stopTime="0.00" timeLoss="34.11" rerouteNo="0" devices="tripinfo_Costa_3_33" vType="passenger2b" speedFactor="0.95" vaporized=""/>