<?xml version="1.0" encoding="UTF-8"?>

<!-- generated on 2025-09-27 20:50:40 by Eclipse SUMO GUI Version 1.21.0
<sumoConfiguration xmlns:xsi="http://www.w3.org/2001/XMLSchema-instance" xsi:noNamespaceSchemaLocation="http://sumo.dlr.de/xsd/sumoConfiguration.xsd">

    <input>
        <net-file value="E:\Users\35601\Desktop\sumo-scenarios\sumo-scenarios\bologna\acosta_persontrips\acosta_peds.net.xml"/>
        <route-files value="E:\Users\35601\Desktop\sumo-scenarios\sumo-scenarios\bologna\acosta_persontrips\acosta.rou.xml,E:\Users\35601\Desktop\sumo-scenarios\sumo-scenarios\bologna\acosta_persontrips\persontrips.rou.xml,E:\Users\35601\Desktop\sumo-scenarios\sumo-scenarios\bologna\acosta_persontrips\acosta_busses.rou.xml"/>
        <additional-files value="E:\Users\35601\Desktop\sumo-scenarios\sumo-scenarios\bologna\acosta_persontrips\acosta_vtypes.add.xml,E:\Users\35601\Desktop\sumo-scenarios\sumo-scenarios\bologna\acosta_persontrips\acosta_bus_stops.add.xml,E:\Users\35601\Desktop\sumo-scenarios\sumo-scenarios\bologna\acosta_persontrips\acosta_tls2.add.xml"/>
    </input>

    <output>
        <tripinfo-output value="E:\Users\35601\Desktop\sumo-scenarios\sumo-scenarios\bologna\acosta_persontrips\tripinfos.xml"/>
        <stop-output value="E:\Users\35601\Desktop\sumo-scenarios\sumo-scenarios\bologna\acosta_persontrips\stops.xml"/>
    </output>

    <processing>
        <pedestrian.striping.reserve-oncoming value="0.34"/>
    </processing>

    <report>
        <log value="E:\Users\35601\Desktop\sumo-scenarios\sumo-scenarios\bologna\acosta_persontrips\sumo_log.txt"/>
        <no-step-log value="true"/>
    </report>

    <gui_only>
        <gui-settings-file value="E:\Users\35601\Desktop\sumo-scenarios\sumo-scenarios\bologna\acosta_persontrips\settings.gui.xml"/>
    </gui_only>

</sumoConfiguration>
-->

<tripinfos xmlns:xsi="http://www.w3.org/2001/XMLSchema-instance" xsi:noNamespaceSchemaLocation="http://sumo.dlr.de/xsd/tripinfo_file.xsd">
    <personinfo id="65" depart="33.00" type="DEFAULT_PEDTYPE" speedFactor="0.92" duration="27.00" waitingTime="0.00" timeLoss="2.88" traveltime="27.00">
        <walk depart="33.00" departPos="0.00" arrival="60.00" arrivalPos="11.99" duration="27.00" routeLength="30.76" timeLoss="2.88" maxSpeed="1.27"/>
    </personinfo>
    <personinfo id="127" depart="64.00" type="DEFAULT_PEDTYPE" speedFactor="0.96" duration="12.00" waitingTime="0.00" timeLoss="1.68" traveltime="12.00">
        <walk depart="64.00" departPos="0.00" arrival="76.00" arrivalPos="13.78" duration="12.00" routeLength="13.78" timeLoss="1.68" maxSpeed="1.34"/>
    </personinfo>
    <personinfo id="182" depart="91.00" type="DEFAULT_PEDTYPE" speedFactor="0.97" duration="13.00" waitingTime="0.00" timeLoss="3.81" traveltime="13.00">
        <walk depart="91.00" departPos="0.00" arrival="104.00" arrivalPos="0.73" duration="13.00" routeLength="12.37" timeLoss="3.81" maxSpeed="1.35"/>
    </personinfo>
    <tripinfo id="Togliatti_2_8" depart="11.00" departLane="85_1" departPos="0.00" departSpeed="0.00" departDelay="0.00" arrival="114.00" arrivalLane="77[1][1]_1" arrivalPos="462.90" arrivalSpeed="13.41" duration="103.00" routeLength="1147.14" waitingTime="0.00" waitingCount="0" stopTime="0.00" timeLoss="20.15" rerouteNo="0" devices="tripinfo_Togliatti_2_8" vType="passenger1" speedFactor="1.03" vaporized=""/>
    <tripinfo id="Costa_12_0" depart="0.00" departLane="78[0]_1" departPos="0.00" departSpeed="0.00" departDelay="0.00" arrival="115.00" arrivalLane="136_1" arrivalPos="186.29" arrivalSpeed="14.32" duration="115.00" routeLength="1415.76" waitingTime="0.00" waitingCount="0" stopTime="0.00" timeLoss="18.53" rerouteNo="0" devices="tripinfo_Costa_12_0" vType="passenger1" speedFactor="1.08" vaporized=""/>
    <personinfo id="27" depart="14.00" type="DEFAULT_PEDTYPE" speedFactor="1.00" duration="105.00" waitingTime="0.00" timeLoss="10.22" traveltime="105.00">
        <walk depart="14.00" departPos="0.00" arrival="119.00" arrivalPos="60.78" duration="105.00" routeLength="132.30" timeLoss="10.22" maxSpeed="1.40"/>
    </personinfo>
    <tripinfo id="Costa_1_2" depart="9.00" departLane="78[0]_1" departPos="0.00" departSpeed="0.00" departDelay="4.00" arrival="120.00" arrivalLane="86_1" arrivalPos="320.14" arrivalSpeed="11.13" duration="111.00" routeLength="1190.93" waitingTime="0.00" waitingCount="0" stopTime="0.00" timeLoss="13.03" rerouteNo="0" devices="tripinfo_Costa_1_2" vType="passenger2b" speedFactor="0.89" vaporized=""/>
    <tripinfo id="Costa_1_4" depart="14.00" departLane="78[0]_1" departPos="0.00" departSpeed="0.00" departDelay="4.00" arrival="121.00" arrivalLane="86_2" arrivalPos="320.14" arrivalSpeed="13.94" duration="107.00" routeLength="1190.93" waitingTime="0.00" waitingCount="0" stopTime="0.00" timeLoss="20.96" rerouteNo="0" devices="tripinfo_Costa_1_4" vType="passenger4" speedFactor="1.02" vaporized=""/>
    <tripinfo id="Costa_12_1" depart="6.00" departLane="78[0]_1" departPos="0.00" departSpeed="0.00" departDelay="4.00" arrival="122.00" arrivalLane="136_1" arrivalPos="186.29" arrivalSpeed="14.00" duration="116.00" routeLength="1415.76" waitingTime="0.00" waitingCount="0" stopTime="0.00" timeLoss="20.08" rerouteNo="0" devices="tripinfo_Costa_12_1" vType="passenger2b" speedFactor="1.09" vaporized=""/>
    <tripinfo id="Audinot_7_0" depart="0.00" departLane="131_1" departPos="0.00" departSpeed="0.00" departDelay="0.00" arrival="125.00" arrivalLane="209_1" arrivalPos="395.59" arrivalSpeed="12.55" duration="125.00" routeLength="873.42" waitingTime="45.00" waitingCount="1" stopTime="0.00" timeLoss="58.09" rerouteNo="0" devices="tripinfo_Audinot_7_0" vType="passenger4" speedFactor="0.98" vaporized=""/>
    <tripinfo id="Costa_3_21" depart="56.00" departLane="78[0]_1" departPos="0.00" departSpeed="0.00" departDelay="2.00" arrival="130.00" arrivalLane="14_1" arrivalPos="75.79" arrivalSpeed="15.60" duration="74.00" routeLength="848.56" waitingTime="0.00" waitingCount="0" stopTime="0.00" timeLoss="18.20" rerouteNo="0" devices="tripinfo_Costa_3_21" vType="passenger1" speedFactor="1.13" vaporized=""/>
    <personinfo id="66" depart="33.00" type="DEFAULT_PEDTYPE" speedFactor="1.16" duration="105.00" waitingTime="0.00" timeLoss="15.79" traveltime="105.00">
        <walk depart="33.00" departPos="0.00" arrival="138.00" arrivalPos="45.53" duration="105.00" routeLength="143.15" timeLoss="15.79" maxSpeed="1.60"/>
    </personinfo>
    <tripinfo id="Costa_12_3" depart="11.00" departLane="78[0]_1" departPos="0.00" departSpeed="0.00" departDelay="4.00" arrival="138.00" arrivalLane="136_1" arrivalPos="186.29" arrivalSpeed="13.75" duration="127.00" routeLength="1412.94" waitingTime="0.00" waitingCount="0" stopTime="0.00" timeLoss="26.06" rerouteNo="0" devices="tripinfo_Costa_12_3" vType="passenger1" speedFactor="1.03" vaporized=""/>
    <tripinfo id="bus_91.0" depart="4.00" departLane="55_1" departPos="12.10" departSpeed="0.00" departDelay="4.00" arrival="139.00" arrivalLane="114_1" arrivalPos="695.55" arrivalSpeed="13.23" duration="135.00" routeLength="1048.36" waitingTime="32.00" waitingCount="2" stopTime="2.00" timeLoss="57.25" rerouteNo="0" devices="tripinfo_bus_91.0" vType="bus" speedFactor="1.00" vaporized=""/>
    <tripinfo id="bus_81.0" depart="8.00" departLane="55_1" departPos="12.10" departSpeed="0.00" departDelay="8.00" arrival="149.00" arrivalLane="114_1" arrivalPos="695.55" arrivalSpeed="13.14" duration="141.00" routeLength="1048.36" waitingTime="26.00" waitingCount="2" stopTime="2.00" timeLoss="63.30" rerouteNo="0" devices="tripinfo_bus_81.0" vType="bus" speedFactor="1.00" vaporized=""/>
    <tripinfo id="Costa_12_7" depart="20.00" departLane="78[0]_1" departPos="0.00" departSpeed="0.00" departDelay="2.00" arrival="149.00" arrivalLane="136_1" arrivalPos="186.29" arrivalSpeed="12.55" duration="129.00" routeLength="1415.76" waitingTime="0.00" waitingCount="0" stopTime="0.00" timeLoss="20.32" rerouteNo="0" devices="tripinfo_Costa_12_7" vType="passenger3" speedFactor="0.96" vaporized=""/>
    <tripinfo id="Costa_12_9" depart="25.00" departLane="78[0]_1" departPos="0.00" departSpeed="0.00" departDelay="2.00" arrival="151.00" arrivalLane="136_1" arrivalPos="186.29" arrivalSpeed="13.59" duration="126.00" routeLength="1412.94" waitingTime="0.00" waitingCount="0" stopTime="0.00" timeLoss="23.87" rerouteNo="0" devices="tripinfo_Costa_12_9" vType="passenger1" speedFactor="1.02" vaporized=""/>
    <tripinfo id="Turati_3_2" depart="69.00" departLane="195_1" departPos="0.00" departSpeed="0.00" departDelay="0.00" arrival="152.00" arrivalLane="14_1" arrivalPos="75.79" arrivalSpeed="12.85" duration="83.00" routeLength="946.16" waitingTime="0.00" waitingCount="0" stopTime="0.00" timeLoss="13.54" rerouteNo="0" devices="tripinfo_Turati_3_2" vType="ignoring1" speedFactor="1.00" vaporized=""/>
    <personinfo id="245" depart="123.00" type="DEFAULT_PEDTYPE" speedFactor="0.95" duration="33.00" waitingTime="0.00" timeLoss="3.75" traveltime="33.00">
        <walk depart="123.00" departPos="0.00" arrival="156.00" arrivalPos="38.40" duration="33.00" routeLength="38.40" timeLoss="3.75" maxSpeed="1.31"/>
    </personinfo>
    <tripinfo id="bus_13.0" depart="0.00" departLane="55_1" departPos="12.10" departSpeed="0.00" departDelay="0.00" arrival="160.00" arrivalLane="114_1" arrivalPos="695.55" arrivalSpeed="13.22" duration="160.00" routeLength="1048.36" waitingTime="40.00" waitingCount="1" stopTime="21.00" timeLoss="63.03" rerouteNo="0" devices="tripinfo_bus_13.0" vType="bus" speedFactor="1.00" vaporized=""/>
    <tripinfo id="Togliatti_12_15" depart="21.00" departLane="85_3" departPos="0.00" departSpeed="0.00" departDelay="0.00" arrival="162.00" arrivalLane="136_1" arrivalPos="186.29" arrivalSpeed="11.65" duration="141.00" routeLength="909.46" waitingTime="51.00" waitingCount="1" stopTime="0.00" timeLoss="67.36" rerouteNo="0" devices="tripinfo_Togliatti_12_15" vType="passenger3" speedFactor="0.91" vaporized=""/>
    <tripinfo id="Pepoli_8_16" depart="27.00" departLane="210_1" departPos="0.00" departSpeed="0.00" departDelay="0.00" arrival="162.00" arrivalLane="134b_1" arrivalPos="156.95" arrivalSpeed="12.98" duration="135.00" routeLength="692.45" waitingTime="61.00" waitingCount="2" stopTime="0.00" timeLoss="83.95" rerouteNo="0" devices="tripinfo_Pepoli_8_16" vType="passenger1" speedFactor="1.00" vaporized=""/>
    <tripinfo id="Pepoli_3_0" depart="0.00" departLane="210_3" departPos="0.00" departSpeed="0.00" departDelay="0.00" arrival="164.00" arrivalLane="14_1" arrivalPos="75.79" arrivalSpeed="13.42" duration="164.00" routeLength="1939.84" waitingTime="0.00" waitingCount="0" stopTime="0.00" timeLoss="22.56" rerouteNo="0" devices="tripinfo_Pepoli_3_0" vType="ignoring2b" speedFactor="1.00" vaporized=""/>
    <tripinfo id="Togliatti_12_24" depart="34.00" departLane="85_3" departPos="0.00" departSpeed="0.00" departDelay="0.00" arrival="164.00" arrivalLane="136_1" arrivalPos="186.29" arrivalSpeed="12.22" duration="130.00" routeLength="909.46" waitingTime="38.00" waitingCount="1" stopTime="0.00" timeLoss="59.31" rerouteNo="0" devices="tripinfo_Togliatti_12_24" vType="passenger1" speedFactor="0.95" vaporized=""/>
    <tripinfo id="Pepoli_8_21" depart="36.00" departLane="210_1" departPos="0.00" departSpeed="0.00" departDelay="0.00" arrival="165.00" arrivalLane="134b_1" arrivalPos="156.95" arrivalSpeed="16.86" duration="129.00" routeLength="692.45" waitingTime="53.00" waitingCount="2" stopTime="0.00" timeLoss="87.40" rerouteNo="0" devices="tripinfo_Pepoli_8_21" vType="passenger1" speedFactor="1.25" vaporized=""/>
    <tripinfo id="Togliatti_12_48" depart="68.00" departLane="85_3" departPos="0.00" departSpeed="0.00" departDelay="0.00" arrival="166.00" arrivalLane="136_1" arrivalPos="186.29" arrivalSpeed="13.53" duration="98.00" routeLength="909.46" waitingTime="9.00" waitingCount="1" stopTime="0.00" timeLoss="33.21" rerouteNo="0" devices="tripinfo_Togliatti_12_48" vType="passenger2a" speedFactor="1.04" vaporized=""/>
    <tripinfo id="Pepoli_8_23" depart="39.00" departLane="210_1" departPos="0.00" departSpeed="0.00" departDelay="0.00" arrival="167.00" arrivalLane="134b_1" arrivalPos="156.95" arrivalSpeed="15.00" duration="128.00" routeLength="692.45" waitingTime="52.00" waitingCount="2" stopTime="0.00" timeLoss="82.49" rerouteNo="0" devices="tripinfo_Pepoli_8_23" vType="passenger1" speedFactor="1.13" vaporized=""/>
    <tripinfo id="Togliatti_12_59" depart="84.00" departLane="85_3" departPos="0.00" departSpeed="0.00" departDelay="0.00" arrival="168.00" arrivalLane="136_1" arrivalPos="186.29" arrivalSpeed="14.36" duration="84.00" routeLength="909.46" waitingTime="0.00" waitingCount="0" stopTime="0.00" timeLoss="23.31" rerouteNo="0" devices="tripinfo_Togliatti_12_59" vType="passenger1" speedFactor="1.12" vaporized=""/>
    <tripinfo id="Vittorio_Veneto_1_4" depart="18.00" departLane="224[0]_1" departPos="0.00" departSpeed="0.00" departDelay="0.00" arrival="171.00" arrivalLane="86_1" arrivalPos="320.14" arrivalSpeed="13.21" duration="153.00" routeLength="1141.64" waitingTime="50.00" waitingCount="1" stopTime="0.00" timeLoss="68.06" rerouteNo="0" devices="tripinfo_Vittorio_Veneto_1_4" vType="passenger5" speedFactor="1.00" vaporized=""/>
    <tripinfo id="Pepoli_8_25" depart="42.00" departLane="210_1" departPos="0.00" departSpeed="0.00" departDelay="0.00" arrival="171.00" arrivalLane="134b_1" arrivalPos="156.95" arrivalSpeed="13.50" duration="129.00" routeLength="692.45" waitingTime="48.00" waitingCount="2" stopTime="0.00" timeLoss="79.40" rerouteNo="0" devices="tripinfo_Pepoli_8_25" vType="passenger2a" speedFactor="1.03" vaporized=""/>
    <tripinfo id="Silvani_11_1" depart="3.00" departLane="203[0]_1" departPos="0.00" departSpeed="0.00" departDelay="1.00" arrival="173.00" arrivalLane="114_1" arrivalPos="694.55" arrivalSpeed="12.95" duration="170.00" routeLength="1114.58" waitingTime="69.00" waitingCount="1" stopTime="0.00" timeLoss="86.44" rerouteNo="0" devices="tripinfo_Silvani_11_1" vType="passenger5" speedFactor="0.96" vaporized=""/>
    <tripinfo id="Silvani_7_2" depart="4.00" departLane="203[0]_2" departPos="0.00" departSpeed="0.00" departDelay="0.00" arrival="173.00" arrivalLane="209_1" arrivalPos="395.59" arrivalSpeed="14.81" duration="169.00" routeLength="1463.24" waitingTime="51.00" waitingCount="2" stopTime="0.00" timeLoss="72.37" rerouteNo="0" devices="tripinfo_Silvani_7_2" vType="passenger1" speedFactor="1.10" vaporized=""/>
    <tripinfo id="Pepoli_8_28" depart="48.00" departLane="210_1" departPos="0.00" departSpeed="0.00" departDelay="0.00" arrival="173.00" arrivalLane="134b_1" arrivalPos="156.95" arrivalSpeed="15.32" duration="125.00" routeLength="692.45" waitingTime="45.00" waitingCount="2" stopTime="0.00" timeLoss="79.53" rerouteNo="0" devices="tripinfo_Pepoli_8_28" vType="passenger3" speedFactor="1.13" vaporized=""/>
    <tripinfo id="Togliatti_71_0" depart="0.00" departLane="85_2" departPos="0.00" departSpeed="0.00" departDelay="0.00" arrival="176.00" arrivalLane="209_1" arrivalPos="395.59" arrivalSpeed="13.17" duration="176.00" routeLength="2026.42" waitingTime="12.00" waitingCount="1" stopTime="0.00" timeLoss="28.27" rerouteNo="0" devices="tripinfo_Togliatti_71_0" vType="passenger2b" speedFactor="1.00" vaporized=""/>
    <tripinfo id="XXI_Aprile_2_12" depart="42.00" departLane="13_1" departPos="0.00" departSpeed="0.00" departDelay="0.00" arrival="176.00" arrivalLane="77[1][1]_1" arrivalPos="462.90" arrivalSpeed="14.87" duration="134.00" routeLength="977.81" waitingTime="40.00" waitingCount="2" stopTime="0.00" timeLoss="68.33" rerouteNo="0" devices="tripinfo_XXI_Aprile_2_12" vType="passenger4" speedFactor="1.10" vaporized=""/>
    <personinfo id="161" depart="81.00" type="DEFAULT_PEDTYPE" speedFactor="0.98" duration="97.00" waitingTime="0.00" timeLoss="11.19" traveltime="97.00">
        <walk depart="81.00" departPos="0.00" arrival="178.00" arrivalPos="62.59" duration="97.00" routeLength="116.74" timeLoss="11.19" maxSpeed="1.36"/>
    </personinfo>
    <tripinfo id="Silvani_11_8" depart="18.00" departLane="203[0]_1" departPos="0.00" departSpeed="0.00" departDelay="0.00" arrival="178.00" arrivalLane="114_1" arrivalPos="694.55" arrivalSpeed="13.25" duration="160.00" routeLength="1114.58" waitingTime="61.00" waitingCount="1" stopTime="0.00" timeLoss="78.40" rerouteNo="0" devices="tripinfo_Silvani_11_8" vType="passenger1" speedFactor="1.00" vaporized=""/>
    <tripinfo id="Togliatti_3_18" depart="25.00" departLane="85_1" departPos="0.00" departSpeed="0.00" departDelay="0.00" arrival="178.00" arrivalLane="14_1" arrivalPos="75.79" arrivalSpeed="15.52" duration="153.00" routeLength="1110.56" waitingTime="56.00" waitingCount="2" stopTime="0.00" timeLoss="79.39" rerouteNo="0" devices="tripinfo_Togliatti_3_18" vType="passenger2b" speedFactor="1.12" vaporized=""/>
    <tripinfo id="Silvani_11_12" depart="28.00" departLane="203[0]_1" departPos="0.00" departSpeed="0.00" departDelay="0.00" arrival="180.00" arrivalLane="114_2" arrivalPos="694.55" arrivalSpeed="13.57" duration="152.00" routeLength="1114.58" waitingTime="55.00" waitingCount="1" stopTime="0.00" timeLoss="71.61" rerouteNo="0" devices="tripinfo_Silvani_11_12" vType="passenger1" speedFactor="1.00" vaporized=""/>
    <tripinfo id="Silvani_11_0" depart="0.00" departLane="203[0]_1" departPos="0.00" departSpeed="0.00" departDelay="0.00" arrival="181.00" arrivalLane="114_1" arrivalPos="694.55" arrivalSpeed="10.96" duration="181.00" routeLength="1114.58" waitingTime="69.00" waitingCount="1" stopTime="0.00" timeLoss="84.01" rerouteNo="0" devices="tripinfo_Silvani_11_0" vType="passenger3" speedFactor="0.83" vaporized=""/>
    <tripinfo id="Silvani_11_14" depart="34.00" departLane="203[0]_1" departPos="0.00" departSpeed="0.00" departDelay="1.00" arrival="181.00" arrivalLane="114_3" arrivalPos="694.55" arrivalSpeed="14.74" duration="147.00" routeLength="1114.58" waitingTime="52.00" waitingCount="1" stopTime="0.00" timeLoss="75.82" rerouteNo="0" devices="tripinfo_Silvani_11_14" vType="passenger3" speedFactor="1.14" vaporized=""/>
    <tripinfo id="Silvani_11_13" depart="31.00" departLane="203[0]_1" departPos="0.00" departSpeed="0.00" departDelay="1.00" arrival="182.00" arrivalLane="114_2" arrivalPos="694.55" arrivalSpeed="14.32" duration="151.00" routeLength="1114.58" waitingTime="53.00" waitingCount="1" stopTime="0.00" timeLoss="74.42" rerouteNo="0" devices="tripinfo_Silvani_11_13" vType="passenger1" speedFactor="1.06" vaporized=""/>
    <tripinfo id="Costa_3_33" depart="90.00" departLane="78[0]_1" departPos="0.00" departSpeed="0.00" departDelay="4.00" arrival="182.00" arrivalLane="14_1" arrivalPos="75.79" arrivalSpeed="12.63" duration="92.00" routeLength="848.56" waitingTime="0.00" waitingCount="0" stopTime="0.00" timeLoss="26.87" rerouteNo="0" devices="tripinfo_Costa_3_33" vType="passenger2b" speedFactor="0.95" vaporized=""/>
    <personinfo id="0" depart="0.00" type="DEFAULT_PEDTYPE" speedFactor="1.03" duration="183.00" waitingTime="0.00" timeLoss="126.41" traveltime="183.00">
        <walk depart="0.00" departPos="0.00" arrival="183.00" arrivalPos="23.02" duration="183.00" routeLength="80.67" timeLoss="126.41" maxSpeed="1.43"/>
    </personinfo>
    <tripinfo id="Silvani_11_9" depart="21.00" departLane="203[0]_1" departPos="0.00" departSpeed="0.00" departDelay="0.00" arrival="183.00" arrivalLane="114_1" arrivalPos="694.55" arrivalSpeed="12.66" duration="162.00" routeLength="1114.58" waitingTime="58.00" waitingCount="1" stopTime="0.00" timeLoss="76.14" rerouteNo="0" devices="tripinfo_Silvani_11_9" vType="passenger1" speedFactor="0.94" vaporized=""/>
    <tripinfo id="Togliatti_2_32" depart="47.00" departLane="85_1" departPos="0.00" departSpeed="0.00" departDelay="2.00" arrival="183.00" arrivalLane="77[1][1]_1" arrivalPos="462.90" arrivalSpeed="14.13" duration="136.00" routeLength="1147.14" waitingTime="33.00" waitingCount="1" stopTime="0.00" timeLoss="54.65" rerouteNo="0" devices="tripinfo_Togliatti_2_32" vType="passenger3" speedFactor="1.04" vaporized=""/>
    <tripinfo id="Togliatti_3_31" depart="44.00" departLane="85_1" departPos="0.00" departSpeed="0.00" departDelay="0.00" arrival="184.00" arrivalLane="14_1" arrivalPos="75.79" arrivalSpeed="14.26" duration="140.00" routeLength="1110.56" waitingTime="34.00" waitingCount="1" stopTime="0.00" timeLoss="59.92" rerouteNo="0" devices="tripinfo_Togliatti_3_31" vType="passenger1" speedFactor="1.04" vaporized=""/>
    <tripinfo id="Silvani_7_3" depart="7.00" departLane="203[0]_1" departPos="0.00" departSpeed="0.00" departDelay="0.00" arrival="187.00" arrivalLane="209_1" arrivalPos="395.59" arrivalSpeed="15.65" duration="180.00" routeLength="1461.78" waitingTime="70.00" waitingCount="1" stopTime="0.00" timeLoss="87.02" rerouteNo="0" devices="tripinfo_Silvani_7_3" vType="passenger1" speedFactor="1.13" vaporized=""/>
    <tripinfo id="Silvani_11_16" depart="37.00" departLane="203[0]_1" departPos="0.00" departSpeed="0.00" departDelay="0.00" arrival="187.00" arrivalLane="114_1" arrivalPos="694.55" arrivalSpeed="13.74" duration="150.00" routeLength="1114.58" waitingTime="51.00" waitingCount="1" stopTime="0.00" timeLoss="70.45" rerouteNo="0" devices="tripinfo_Silvani_11_16" vType="passenger3" speedFactor="1.02" vaporized=""/>
    <tripinfo id="Costa_3_38" depart="105.00" departLane="78[0]_1" departPos="0.00" departSpeed="0.00" departDelay="6.00" arrival="187.00" arrivalLane="14_1" arrivalPos="75.79" arrivalSpeed="12.39" duration="82.00" routeLength="848.56" waitingTime="0.00" waitingCount="0" stopTime="0.00" timeLoss="17.13" rerouteNo="0" devices="tripinfo_Costa_3_38" vType="passenger1" speedFactor="0.96" vaporized=""/>
    <personinfo id="88" depart="44.00" type="DEFAULT_PEDTYPE" speedFactor="0.94" duration="144.00" waitingTime="0.00" timeLoss="15.40" traveltime="144.00">
        <walk depart="44.00" departPos="0.00" arrival="188.00" arrivalPos="79.55" duration="144.00" routeLength="167.86" timeLoss="15.40" maxSpeed="1.31"/>
    </personinfo>
    <tripinfo id="Vittorio_Veneto_1_10" depart="45.00" departLane="224[0]_1" departPos="0.00" departSpeed="0.00" departDelay="0.00" arrival="188.00" arrivalLane="86_1" arrivalPos="320.14" arrivalSpeed="13.56" duration="143.00" routeLength="1141.64" waitingTime="46.00" waitingCount="1" stopTime="0.00" timeLoss="59.94" rerouteNo="0" devices="tripinfo_Vittorio_Veneto_1_10" vType="passenger1" speedFactor="1.01" vaporized=""/>
    <tripinfo id="Togliatti_3_39" depart="55.00" departLane="85_1" departPos="0.00" departSpeed="0.00" departDelay="0.00" arrival="190.00" arrivalLane="14_1" arrivalPos="75.79" arrivalSpeed="12.81" duration="135.00" routeLength="1107.35" waitingTime="28.00" waitingCount="1" stopTime="0.00" timeLoss="51.19" rerouteNo="0" devices="tripinfo_Togliatti_3_39" vType="passenger2b" speedFactor="0.98" vaporized=""/>
    <tripinfo id="Silvani_11_24" depart="57.00" departLane="203[0]_1" departPos="0.00" departSpeed="0.00" departDelay="1.00" arrival="192.00" arrivalLane="114_1" arrivalPos="694.55" arrivalSpeed="14.63" duration="135.00" routeLength="1114.58" waitingTime="33.00" waitingCount="1" stopTime="0.00" timeLoss="58.54" rerouteNo="0" devices="tripinfo_Silvani_11_24" vType="passenger1" speedFactor="1.06" vaporized=""/>
    <personinfo id="306" depart="153.00" type="DEFAULT_PEDTYPE" speedFactor="1.04" duration="41.00" waitingTime="0.00" timeLoss="4.80" traveltime="41.00">
        <walk depart="153.00" departPos="0.00" arrival="194.00" arrivalPos="47.66" duration="41.00" routeLength="52.52" timeLoss="4.80" maxSpeed="1.45"/>
    </personinfo>
    <tripinfo id="Audinot_10_2" depart="42.00" departLane="131_1" departPos="0.00" departSpeed="0.00" departDelay="0.00" arrival="194.00" arrivalLane="204[1][1]_1" arrivalPos="433.07" arrivalSpeed="11.52" duration="152.00" routeLength="1642.15" waitingTime="0.00" waitingCount="0" stopTime="0.00" timeLoss="16.45" rerouteNo="0" devices="tripinfo_Audinot_10_2" vType="passenger2b" speedFactor="0.89" vaporized=""/>
    <tripinfo id="Silvani_11_27" depart="63.00" departLane="203[0]_1" departPos="0.00" departSpeed="0.00" departDelay="0.00" arrival="194.00" arrivalLane="114_2" arrivalPos="694.55" arrivalSpeed="14.44" duration="131.00" routeLength="1114.58" waitingTime="31.00" waitingCount="1" stopTime="0.00" timeLoss="54.81" rerouteNo="0" devices="tripinfo_Silvani_11_27" vType="passenger2a" speedFactor="1.07" vaporized=""/>
    <tripinfo id="Silvani_11_17" depart="40.00" departLane="203[0]_1" departPos="0.00" departSpeed="0.00" departDelay="0.00" arrival="195.00" arrivalLane="114_1" arrivalPos="694.55" arrivalSpeed="12.47" duration="155.00" routeLength="1114.58" waitingTime="49.00" waitingCount="1" stopTime="0.00" timeLoss="68.76" rerouteNo="0" devices="tripinfo_Silvani_11_17" vType="passenger3" speedFactor="0.94" vaporized=""/>
    <tripinfo id="Silvani_11_32" depart="76.00" departLane="203[0]_1" departPos="0.00" departSpeed="0.00" departDelay="1.00" arrival="197.00" arrivalLane="114_2" arrivalPos="694.55" arrivalSpeed="14.32" duration="121.00" routeLength="1114.58" waitingTime="20.00" waitingCount="1" stopTime="0.00" timeLoss="43.03" rerouteNo="0" devices="tripinfo_Silvani_11_32" vType="passenger5" speedFactor="1.04" vaporized=""/>
    <tripinfo id="Silvani_11_23" depart="54.00" departLane="203[0]_1" departPos="0.00" departSpeed="0.00" departDelay="0.00" arrival="198.00" arrivalLane="114_1" arrivalPos="694.55" arrivalSpeed="11.69" duration="144.00" routeLength="1114.58" waitingTime="34.00" waitingCount="1" stopTime="0.00" timeLoss="55.61" rerouteNo="0" devices="tripinfo_Silvani_11_23" vType="passenger3" speedFactor="0.91" vaporized=""/>
    <tripinfo id="Pepoli_11_5" depart="8.00" departLane="210_2" departPos="0.00" departSpeed="0.00" departDelay="0.00" arrival="199.00" arrivalLane="114_2" arrivalPos="694.55" arrivalSpeed="15.40" duration="191.00" routeLength="1737.76" waitingTime="62.00" waitingCount="2" stopTime="0.00" timeLoss="81.63" rerouteNo="0" devices="tripinfo_Pepoli_11_5" vType="passenger2a" speedFactor="1.15" vaporized=""/>
    <tripinfo id="Turati_10_0" depart="0.00" departLane="195_1" departPos="0.00" departSpeed="0.00" departDelay="0.00" arrival="200.00" arrivalLane="204[1][1]_1" arrivalPos="433.07" arrivalSpeed="11.78" duration="200.00" routeLength="2031.85" waitingTime="2.00" waitingCount="1" stopTime="0.00" timeLoss="29.93" rerouteNo="0" devices="tripinfo_Turati_10_0" vType="passenger4" speedFactor="0.89" vaporized=""/>
    <tripinfo id="Silvani_11_33" depart="79.00" departLane="203[0]_1" departPos="0.00" departSpeed="0.00" departDelay="2.00" arrival="200.00" arrivalLane="114_1" arrivalPos="694.55" arrivalSpeed="13.82" duration="121.00" routeLength="1114.58" waitingTime="18.00" waitingCount="1" stopTime="0.00" timeLoss="43.61" rerouteNo="0" devices="tripinfo_Silvani_11_33" vType="passenger1" speedFactor="1.04" vaporized=""/>
    <tripinfo id="Turati_10_1" depart="34.00" departLane="195_1" departPos="0.00" departSpeed="0.00" departDelay="0.00" arrival="202.00" arrivalLane="204[1][1]_1" arrivalPos="433.07" arrivalSpeed="14.28" duration="168.00" routeLength="2031.85" waitingTime="0.00" waitingCount="0" stopTime="0.00" timeLoss="27.82" rerouteNo="0" devices="tripinfo_Turati_10_1" vType="passenger1" speedFactor="1.07" vaporized=""/>
    <tripinfo id="Pepoli_11_3" depart="5.00" departLane="210_2" departPos="0.00" departSpeed="0.00" departDelay="0.00" arrival="206.00" arrivalLane="114_1" arrivalPos="694.55" arrivalSpeed="13.37" duration="201.00" routeLength="1734.80" waitingTime="55.00" waitingCount="2" stopTime="0.00" timeLoss="76.41" rerouteNo="0" devices="tripinfo_Pepoli_11_3" vType="passenger1" speedFactor="1.01" vaporized=""/>
    <tripinfo id="Togliatti_2_40" depart="57.00" departLane="85_1" departPos="0.00" departSpeed="0.00" departDelay="1.00" arrival="207.00" arrivalLane="77[1][1]_1" arrivalPos="462.90" arrivalSpeed="12.76" duration="150.00" routeLength="1147.14" waitingTime="32.00" waitingCount="2" stopTime="0.00" timeLoss="61.42" rerouteNo="0" devices="tripinfo_Togliatti_2_40" vType="passenger2b" speedFactor="0.96" vaporized=""/>
    <tripinfo id="Togliatti_2_45" depart="64.00" departLane="85_1" departPos="0.00" departSpeed="0.00" departDelay="0.00" arrival="209.00" arrivalLane="77[1][1]_1" arrivalPos="462.90" arrivalSpeed="14.03" duration="145.00" routeLength="1147.14" waitingTime="27.00" waitingCount="2" stopTime="0.00" timeLoss="62.20" rerouteNo="0" devices="tripinfo_Togliatti_2_45" vType="passenger3" speedFactor="1.03" vaporized=""/>
    <tripinfo id="Pepoli_10_11" depart="20.00" departLane="210_1" departPos="0.00" departSpeed="0.00" departDelay="2.00" arrival="210.00" arrivalLane="204[1][1]_1" arrivalPos="433.07" arrivalSpeed="14.10" duration="190.00" routeLength="1468.77" waitingTime="66.00" waitingCount="2" stopTime="0.00" timeLoss="85.97" rerouteNo="0" devices="tripinfo_Pepoli_10_11" vType="passenger1" speedFactor="1.02" vaporized=""/>
    <tripinfo id="Togliatti_2_47" depart="67.00" departLane="85_1" departPos="0.00" departSpeed="0.00" departDelay="1.00" arrival="212.00" arrivalLane="77[1][1]_1" arrivalPos="462.90" arrivalSpeed="13.12" duration="145.00" routeLength="1147.14" waitingTime="22.00" waitingCount="2" stopTime="0.00" timeLoss="58.63" rerouteNo="0" devices="tripinfo_Togliatti_2_47" vType="passenger3" speedFactor="0.98" vaporized=""/>
    <personinfo id="123" depart="62.00" type="DEFAULT_PEDTYPE" speedFactor="1.18" duration="151.00" waitingTime="0.00" timeLoss="33.01" traveltime="151.00">
        <walk depart="62.00" departPos="0.00" arrival="213.00" arrivalPos="34.12" duration="151.00" routeLength="193.75" timeLoss="33.01" maxSpeed="1.64"/>
    </personinfo>
    <personinfo id="116" depart="58.00" type="DEFAULT_PEDTYPE" speedFactor="0.97" duration="155.00" waitingTime="0.00" timeLoss="15.36" traveltime="155.00">